         0 0.00168927
  0.000445 0.00168927
  0.001335 0.00168931
  0.002225 0.00168846
  0.003115 0.00168679
  0.004005 0.00168238
  0.004895 0.00167601
  0.005785 0.00166532
  0.006675 0.00165195
0.00756867 0.00163335
0.00852095 0.00161105
0.00958982 0.00157787
 0.0107896 0.00153675
 0.0121362 0.00147989
 0.0136477 0.00141051
 0.0153442 0.00132021
 0.0172484 0.00121352
 0.0193858 0.00108221
 0.0217849 0.000933778
 0.0244777 0.000761161
 0.0275001 0.000576556
 0.0308926 0.00037457
 0.0347005 0.000173023
 0.0389746 -3.28127e-05
 0.0437719 -0.000220207
 0.0491566 -0.000396017
 0.0552005 -0.00053484
 0.0619844 -0.000650437
 0.0695988 -0.000718278
 0.0781455 -0.000763689
 0.0877386 -0.000762577
 0.0985062 -0.000752719
  0.110592 -0.000706856
  0.124158 -0.000669708
  0.139384 -0.000601744
  0.156474 -0.00055627
  0.175657 -0.00047768
  0.197189 -0.000429084
  0.221357 -0.000344969
  0.248483 -0.000281897
  0.278931 -0.000221984
  0.314615 -5.4297e-05
   0.35378 -6.23154e-05
  0.392945 3.67756e-05
   0.43211 0.000105765
  0.471275 0.000192525
   0.51044 0.000276467
  0.549604 0.00035345
  0.588769 0.000434279
  0.627934 0.000508266
  0.667099 0.000592308
  0.706264 0.000665583
  0.745429 0.000745225
  0.784593 0.000809836
  0.823758 0.000876484
  0.862923 0.000921186
  0.902088 0.000965733
  0.941253 0.000986158
  0.980418 0.00100316
   1.01958 0.000995192
   1.05875 0.000984275
   1.09791 0.000947677
   1.13708 0.000907689
   1.17624 0.000847008
   1.21541 0.000792348
   1.25457 0.000717987
   1.29374 0.000650178
    1.3329 0.000569403
   1.37207 0.000496692
   1.41123 0.000407509
    1.4504 0.000334657
   1.48956 0.000243868
   1.52873 0.000168721
   1.56789 7.76493e-05
   1.60706 1.50266e-05
   1.64622 -7.68237e-05
   1.68539 -6.86793e-05
   1.72107 -0.000237431
   1.75152 -0.000297748
   1.77865 -0.000362083
   1.80281 -0.000443637
   1.82434 -0.000491068
   1.84353 -0.000571752
   1.86062 -0.000616811
   1.87584 -0.000688394
   1.88941 -0.000723811
    1.9015 -0.000774212
   1.91226 -0.000783383
   1.92186 -0.000787738
    1.9304 -0.000742194
   1.93802 -0.000677158
    1.9448 -0.000561251
   1.95084 -0.000423932
   1.95623 -0.000246532
   1.96103 -5.85719e-05
    1.9653 0.00015023
   1.96911 0.000353531
    1.9725 0.000558757
   1.97552 0.000745365
   1.97822 0.000920965
   1.98061 0.00107123
   1.98275 0.00120499
   1.98466 0.00131311
   1.98635 0.00140523
   1.98786  0.0014756
   1.98921 0.00153373
   1.99041 0.00157546
   1.99148 0.00160945
   1.99243 0.00163208
   1.99333 0.00165117
   1.99421 0.00166473
    1.9951 0.00167574
     1.996 0.00168219
   1.99689 0.00168676
   1.99777 0.00168843
   1.99867 0.00168932
   1.99956 0.00168926
         2 0.00168926
