         0 6.20521e-05
  0.000445 6.20521e-05
  0.001335 6.19095e-05
  0.002225 6.1922e-05
  0.003115 6.19836e-05
  0.004005 6.20404e-05
  0.004895 6.22435e-05
  0.005785 6.23585e-05
  0.006675 6.26366e-05
0.00756867 6.28287e-05
0.00852095 6.31296e-05
0.00958982 6.33829e-05
 0.0107896 6.37677e-05
 0.0121362 6.40728e-05
 0.0136477 6.44622e-05
 0.0153442 6.47418e-05
 0.0172484 6.50203e-05
 0.0193858 6.51295e-05
 0.0217849 6.51347e-05
 0.0244777 6.48863e-05
 0.0275001 6.44301e-05
 0.0308926 6.36325e-05
 0.0347005 6.25514e-05
 0.0389746 6.10785e-05
 0.0437719 5.93166e-05
 0.0491566 5.71975e-05
 0.0552005 5.48939e-05
 0.0619844 5.23707e-05
 0.0695988 4.98538e-05
 0.0781455 4.72939e-05
 0.0877386 4.49428e-05
 0.0985062 4.26803e-05
  0.110592 4.0766e-05
  0.124158 3.89475e-05
  0.139384 3.75574e-05
  0.156474 3.61248e-05
  0.175657 3.51385e-05
  0.197189 3.38852e-05
  0.221357 3.31615e-05
  0.248483 3.1878e-05
  0.278931 3.1077e-05
  0.314615 2.95161e-05
   0.35378 2.83335e-05
  0.392945 2.67467e-05
   0.43211 2.55081e-05
  0.471275 2.42199e-05
   0.51044 2.31809e-05
  0.549604 2.21622e-05
  0.588769 2.1293e-05
  0.627934 2.04312e-05
  0.667099 1.96818e-05
  0.706264 1.90189e-05
  0.745429 1.84342e-05
  0.784593 1.79189e-05
  0.823758 1.74968e-05
  0.862923 1.71448e-05
  0.902088 1.6895e-05
  0.941253 1.67174e-05
  0.980418 1.66412e-05
   1.01958 1.66522e-05
   1.05875 1.67583e-05
   1.09791 1.69476e-05
   1.13708 1.72225e-05
   1.17624 1.75804e-05
   1.21541 1.80123e-05
   1.25457 1.85285e-05
   1.29374 1.91064e-05
    1.3329 1.97831e-05
   1.37207 2.05225e-05
   1.41123 2.13246e-05
    1.4504 2.22211e-05
   1.48956 2.3204e-05
   1.52873 2.42795e-05
   1.56789 2.55582e-05
   1.60706 2.6786e-05
   1.64622 2.83455e-05
   1.68539 2.95152e-05
   1.72107 3.10629e-05
   1.75152 3.19409e-05
   1.77865 3.32223e-05
   1.80281 3.40109e-05
   1.82434 3.52841e-05
   1.84353 3.63142e-05
   1.86062 3.77731e-05
   1.87584 3.92416e-05
   1.88941 4.11172e-05
    1.9015 4.31175e-05
   1.91226 4.54645e-05
   1.92186 4.79157e-05
    1.9304 5.05687e-05
   1.93802 5.31857e-05
    1.9448 5.57964e-05
   1.95084 5.81943e-05
   1.95623 6.03862e-05
   1.96103 6.22219e-05
    1.9653 6.3746e-05
   1.96911 6.48757e-05
    1.9725 6.57026e-05
   1.97552 6.61868e-05
   1.97822 6.64491e-05
   1.98061 6.64565e-05
   1.98275 6.63497e-05
   1.98466 6.60726e-05
   1.98635 6.57883e-05
   1.98786 6.53937e-05
   1.98921 6.50814e-05
   1.99041 6.46887e-05
   1.99148 6.44286e-05
   1.99243 6.41202e-05
   1.99333 6.39224e-05
   1.99421 6.36368e-05
    1.9951 6.35178e-05
     1.996 6.33088e-05
   1.99689 6.32496e-05
   1.99777 6.31856e-05
   1.99867 6.31724e-05
   1.99956 6.33183e-05
         2 6.33183e-05
