         0          0
  0.000445  0.0204292
  0.001335  0.0612275
  0.002225   0.101839
  0.003115   0.142016
  0.004005   0.181413
  0.004895   0.219628
  0.005785   0.256257
  0.006675   0.290949
0.00756867   0.323577
0.00852095    0.35581
0.00958982   0.388769
 0.0107896   0.421828
 0.0121362   0.454356
 0.0136477    0.48579
 0.0153442   0.515696
 0.0172484   0.543791
 0.0193858    0.56995
 0.0217849   0.594162
 0.0244777   0.616492
 0.0275001   0.637009
 0.0308926   0.655778
 0.0347005   0.672873
 0.0389746   0.688607
 0.0437719   0.703397
 0.0491566   0.717299
 0.0552005   0.730513
 0.0619844   0.742771
 0.0695988   0.754524
 0.0781455   0.766661
 0.0877386   0.778634
 0.0985062   0.790498
  0.110592   0.803081
  0.124158   0.816618
  0.139384   0.830679
  0.156474   0.845855
  0.175657   0.861188
  0.197189   0.878459
  0.221357   0.897557
  0.248483   0.919558
  0.278931   0.939531
  0.314615   0.962797
   0.35378   0.984413
  0.392945    1.00249
   0.43211    1.02134
  0.471275    1.04013
   0.51044    1.05665
  0.549604    1.07067
  0.588769    1.08368
  0.627934    1.09627
  0.667099    1.10772
  0.706264    1.11664
  0.745429    1.12431
  0.784593    1.13145
  0.823758    1.13838
  0.862923    1.14268
  0.902088    1.14647
  0.941253    1.14864
  0.980418    1.14979
   1.01958    1.15024
   1.05875    1.14864
   1.09791    1.14553
   1.13708    1.14096
   1.17624    1.13434
   1.21541    1.12658
   1.25457    1.11823
   1.29374    1.10839
    1.3329    1.09731
   1.37207    1.08702
   1.41123    1.07694
    1.4504    1.06448
   1.48956    1.05241
   1.52873    1.03703
   1.56789    1.02022
   1.60706    1.00047
   1.64622   0.982853
   1.68539   0.962116
   1.72107   0.937991
   1.75152   0.919731
   1.77865   0.899974
   1.80281   0.882595
   1.82434   0.865054
   1.84353   0.849243
   1.86062   0.834449
   1.87584   0.820999
   1.88941   0.808643
    1.9015    0.79577
   1.91226   0.783847
   1.92186   0.772463
    1.9304   0.760744
   1.93802   0.748716
    1.9448    0.73603
   1.95084   0.722809
   1.95623   0.708625
   1.96103   0.693299
    1.9653   0.676883
   1.96911   0.659305
    1.9725   0.640442
   1.97552   0.620049
   1.97822   0.597904
   1.98061   0.573856
   1.98275   0.547814
   1.98466   0.519762
   1.98635    0.48981
   1.98786   0.458228
   1.98921   0.425466
   1.99041   0.392111
   1.99148   0.358827
   1.99243   0.326267
   1.99333   0.293307
   1.99421   0.258276
    1.9951   0.221306
     1.996   0.182757
   1.99689   0.143039
   1.99777   0.102556
   1.99867  0.0616519
   1.99956  0.0205695
         2          0
