         0          0
  0.000445 -5.23863e-05
  0.001335 -0.00100372
  0.002225 -0.00442828
  0.003115 -0.0114739
  0.004005 -0.0222794
  0.004895  -0.035791
  0.005785 -0.0501487
  0.006675 -0.0633762
0.00756867 -0.0743698
0.00852095 -0.0806493
0.00958982 -0.0840803
 0.0107896 -0.0831587
 0.0121362 -0.0781712
 0.0136477 -0.0701043
 0.0153442 -0.0604195
 0.0172484 -0.0504551
 0.0193858 -0.0412307
 0.0217849 -0.0332312
 0.0244777 -0.0266022
 0.0275001  -0.021208
 0.0308926  -0.016851
 0.0347005 -0.0133048
 0.0389746 -0.0103906
 0.0437719 -0.00799305
 0.0491566 -0.00603312
 0.0552005 -0.00443775
 0.0619844 -0.00318463
 0.0695988 -0.00226602
 0.0781455 -0.00159534
 0.0877386 -0.00110003
 0.0985062 -0.000723623
  0.110592 -0.000419421
  0.124158 -0.00014747
  0.139384 8.25865e-05
  0.156474 0.000276707
  0.175657 0.000543106
  0.197189 0.000620069
  0.221357 0.000900437
  0.248483 0.00085742
  0.278931 0.00125444
  0.314615 0.00138717
   0.35378 0.00145696
  0.392945 0.00172924
   0.43211 0.00173944
  0.471275  0.0019047
   0.51044 0.00195815
  0.549604 0.00205756
  0.588769 0.00212941
  0.627934 0.00218594
  0.667099 0.00224727
  0.706264 0.00230181
  0.745429 0.00234186
  0.784593  0.0023956
  0.823758  0.0024047
  0.862923 0.00244606
  0.902088 0.00246865
  0.941253 0.00247988
  0.980418 0.00249714
   1.01958 0.00248982
   1.05875 0.00249186
   1.09791 0.00248884
   1.13708 0.00247703
   1.17624 0.00245732
   1.21541  0.0024478
   1.25457 0.00241281
   1.29374 0.00238676
    1.3329 0.00233095
   1.37207  0.0023135
   1.41123 0.00221066
    1.4504 0.00214983
   1.48956 0.00203573
   1.52873 0.00197097
   1.56789 0.00181981
   1.60706 0.00176667
   1.64622 0.00150231
   1.68539 0.00147597
   1.72107 0.00130415
   1.75152 0.000899784
   1.77865 0.000957918
   1.80281 0.000577705
   1.82434 0.000500422
   1.84353 0.000227892
   1.86062 9.44401e-05
   1.87584 -0.00017898
   1.88941 -0.000448818
    1.9015 -0.00074848
   1.91226 -0.00110877
   1.92186 -0.00163868
    1.9304 -0.00235098
   1.93802 -0.00328669
    1.9448 -0.00452264
   1.95084 -0.00613424
   1.95623 -0.0081228
   1.96103 -0.0105374
    1.9653 -0.0134732
   1.96911 -0.0171068
    1.9725 -0.0215661
   1.97552 -0.0270476
   1.97822  -0.033777
   1.98061 -0.0419226
   1.98275 -0.0513393
   1.98466 -0.0615376
   1.98635 -0.0714923
   1.98786 -0.0798442
   1.98921 -0.0850876
   1.99041 -0.0861898
   1.99148 -0.0828273
   1.99243 -0.0765164
   1.99333 -0.0653298
   1.99421 -0.0517899
    1.9951 -0.0370285
     1.996 -0.0230877
   1.99689 -0.0119069
   1.99777 -0.00460045
   1.99867 -0.00104356
   1.99956 -5.44965e-05
         2          0
