         0          0
  0.000445  0.0204459
  0.001335  0.0612812
  0.002225   0.101939
  0.003115   0.142178
  0.004005   0.181654
  0.004895   0.219966
  0.005785   0.256708
  0.006675   0.291527
0.00756867   0.324292
0.00852095   0.356673
0.00958982   0.389795
 0.0107896   0.423021
 0.0121362   0.455704
 0.0136477   0.487263
 0.0153442   0.517249
 0.0172484   0.545373
 0.0193858   0.571509
 0.0217849   0.595654
 0.0244777   0.617893
 0.0275001   0.638355
 0.0308926    0.65719
 0.0347005   0.674545
 0.0389746   0.690559
 0.0437719   0.705378
 0.0491566   0.719153
 0.0552005   0.732061
 0.0619844   0.744322
 0.0695988   0.756179
 0.0781455   0.767858
 0.0877386   0.779584
 0.0985062   0.791613
  0.110592   0.804119
  0.124158   0.817271
  0.139384   0.831286
  0.156474   0.846288
  0.175657    0.86223
  0.197189   0.879721
  0.221357   0.897782
  0.248483   0.918303
  0.278931    0.93694
  0.314615   0.960106
   0.35378   0.983228
  0.392945    1.00248
   0.43211    1.02135
  0.471275    1.03732
   0.51044    1.05275
  0.549604    1.06671
  0.588769    1.07934
  0.627934    1.09084
  0.667099    1.10122
  0.706264    1.11065
  0.745429    1.11928
  0.784593    1.12673
  0.823758    1.13337
  0.862923    1.13863
  0.902088    1.14267
  0.941253    1.14553
  0.980418    1.14693
   1.01958    1.14701
   1.05875    1.14572
   1.09791    1.14315
   1.13708    1.13934
   1.17624    1.13436
   1.21541    1.12797
   1.25457    1.12065
   1.29374    1.11223
    1.3329    1.10289
   1.37207    1.09216
   1.41123    1.08103
    1.4504    1.06855
   1.48956    1.05531
   1.52873    1.04034
   1.56789     1.0242
   1.60706    1.00624
   1.64622   0.987602
   1.68539   0.964991
   1.72107    0.94257
   1.75152    0.92404
   1.77865   0.903579
   1.80281   0.885872
   1.82434   0.868266
   1.84353   0.852335
   1.86062   0.837148
   1.87584   0.823229
   1.88941   0.810094
    1.9015   0.797649
   1.91226   0.785668
   1.92186   0.773958
    1.9304   0.762278
   1.93802   0.750389
    1.9448   0.738068
   1.95084   0.725106
   1.95623    0.71128
   1.96103   0.696411
    1.9653    0.68034
   1.96911   0.662928
    1.9725   0.644017
   1.97552   0.623458
   1.97822   0.601103
   1.98061   0.576827
   1.98275   0.550548
   1.98466   0.522265
   1.98635   0.492103
   1.98786   0.460344
   1.98921   0.427435
   1.99041   0.393958
   1.99148   0.360564
   1.99243   0.327896
   1.99333    0.29482
   1.99421   0.259651
    1.9951   0.222518
     1.996   0.183781
   1.99689   0.143853
   1.99777   0.103145
   1.99867  0.0620067
   1.99956  0.0206879
         2          0
