         0          0
  0.000445 2.32009e-08
  0.001335 -3.45121e-06
  0.002225 -1.66425e-05
  0.003115 -4.7194e-05
  0.004005 -9.77396e-05
  0.004895 -0.00017311
  0.005785 -0.00026747
  0.006675 -0.000382894
0.00756867 -0.000504935
0.00852095 -0.000636034
0.00958982 -0.000795777
 0.0107896 -0.000955333
 0.0121362 -0.00112555
 0.0136477 -0.00128271
 0.0153442 -0.00143305
 0.0172484 -0.00156149
 0.0193858  -0.001675
 0.0217849 -0.00176677
 0.0244777 -0.00184393
 0.0275001 -0.00190429
 0.0308926 -0.0019532
 0.0347005   -0.00199
 0.0389746 -0.00201786
 0.0437719 -0.00203673
 0.0491566 -0.0020484
 0.0552005 -0.00205267
 0.0619844 -0.0020506
 0.0695988 -0.00204217
 0.0781455 -0.0020286
 0.0877386 -0.00200996
 0.0985062 -0.00198767
  0.110592 -0.00196138
  0.124158 -0.00193265
  0.139384 -0.00190258
  0.156474 -0.00187088
  0.175657 -0.00184299
  0.197189 -0.00180963
  0.221357 -0.00178953
  0.248483 -0.0017415
  0.278931 -0.00174331
  0.314615 -0.00163874
   0.35378 -0.00158787
  0.392945 -0.00145637
   0.43211 -0.00136421
  0.471275 -0.00125126
   0.51044 -0.00115478
  0.549604 -0.00105078
  0.588769 -0.000955611
  0.627934 -0.000856411
  0.667099 -0.000763474
  0.706264 -0.000667175
  0.745429 -0.000574634
  0.784593 -0.000481381
  0.823758 -0.000390655
  0.862923 -0.000300301
  0.902088 -0.000210074
  0.941253 -0.000120696
  0.980418 -3.07523e-05
   1.01958 5.74951e-05
   1.05875 0.000146673
   1.09791 0.000234093
   1.13708 0.000322623
   1.17624 0.000408988
   1.21541 0.000496191
   1.25457 0.00058182
   1.29374 0.000669738
    1.3329  0.0007555
   1.37207 0.000845146
   1.41123 0.000936939
    1.4504   0.001028
   1.48956 0.00112859
   1.52873 0.00122413
   1.56789 0.00133697
   1.60706 0.00143108
   1.64622 0.00155798
   1.68539  0.0016145
   1.72107 0.00172505
   1.75152 0.00172599
   1.77865 0.00178138
   1.80281 0.00180291
   1.82434 0.00183955
   1.84353 0.00186916
   1.86062 0.00190449
   1.87584 0.00193648
   1.88941 0.00196815
    1.9015 0.00199629
   1.91226 0.00202092
   1.92186 0.00204175
    1.9304 0.00205699
   1.93802 0.00206676
    1.9448 0.00207031
   1.95084 0.00206733
   1.95623  0.0020567
   1.96103 0.00203866
    1.9653 0.00201158
   1.96911 0.00197541
    1.9725 0.00192687
   1.97552 0.00186665
   1.97822 0.00178946
   1.98061  0.0016975
   1.98275 0.00158355
   1.98466  0.0014544
   1.98635   0.001303
   1.98786 0.00114449
   1.98921 0.000972476
   1.99041 0.000810941
   1.99148 0.000648889
   1.99243 0.00051567
   1.99333 0.000391431
   1.99421 0.000273705
    1.9951 0.000177307
     1.996 0.000100197
   1.99689 4.84086e-05
   1.99777 1.70836e-05
   1.99867 3.54176e-06
   1.99956 -2.31426e-08
         2          0
