         0          0
  0.000445 9.21681e-10
  0.001335 1.06891e-07
  0.002225 8.25314e-07
  0.003115 2.84659e-06
  0.004005 6.91189e-06
  0.004895 1.38593e-05
  0.005785 2.38539e-05
  0.006675 3.81298e-05
0.00756867 5.5387e-05
0.00852095 7.7341e-05
0.00958982 0.000110179
 0.0107896 0.000151098
 0.0121362 0.000207164
 0.0136477 0.000276602
 0.0153442 0.000365601
 0.0172484 0.000472802
 0.0193858 0.000602401
 0.0217849 0.000752112
 0.0244777 0.000922878
 0.0275001 0.00111005
 0.0308926 0.00131049
 0.0347005  0.0015166
 0.0389746 0.00172167
 0.0437719 0.00191636
 0.0491566 0.00209259
 0.0552005 0.00224217
 0.0619844 0.00235959
 0.0695988 0.00244223
 0.0781455 0.00249081
 0.0877386 0.00250938
 0.0985062 0.00250495
  0.110592 0.00248594
  0.124158 0.00245931
  0.139384 0.00243037
  0.156474 0.00240438
  0.175657   0.002381
  0.197189 0.00236123
  0.221357 0.00234518
  0.248483 0.00231367
  0.278931 0.00232193
  0.314615 0.00217086
   0.35378 0.00218702
  0.392945 0.00206035
   0.43211 0.00195136
  0.471275  0.0018242
   0.51044 0.00170291
  0.549604 0.00158656
  0.588769 0.00147593
  0.627934 0.00136658
  0.667099 0.00125955
  0.706264  0.0011559
  0.745429 0.00106025
  0.784593 0.000970828
  0.823758 0.00089542
  0.862923 0.000832442
  0.902088 0.000784918
  0.941253 0.000752449
  0.980418 0.000739034
   1.01958 0.000740741
   1.05875 0.000761578
   1.09791 0.000797967
   1.13708 0.000853356
   1.17624 0.000919908
   1.21541 0.000995809
   1.25457 0.00108133
   1.29374 0.00117669
    1.3329 0.00127376
   1.37207 0.00137846
   1.41123 0.00149184
    1.4504 0.00160176
   1.48956 0.00172383
   1.52873 0.00184145
   1.56789 0.00196871
   1.60706  0.0020741
   1.64622 0.00219043
   1.68539 0.00217682
   1.72107 0.00233168
   1.75152 0.00232376
   1.77865  0.0023594
   1.80281 0.00237183
   1.82434 0.00239297
   1.84353  0.0024167
   1.86062 0.00244588
   1.87584 0.00247589
   1.88941   0.002504
    1.9015 0.00252531
   1.91226 0.00253126
   1.92186 0.00251433
    1.9304 0.00246723
   1.93802 0.00238606
    1.9448  0.0022696
   1.95084 0.00212033
   1.95623 0.00194348
   1.96103 0.00174725
    1.9653    0.00154
   1.96911 0.00133136
    1.9725 0.00112829
   1.97552 0.000938503
   1.97822 0.000765225
   1.98061 0.000613205
   1.98275 0.000481532
   1.98466 0.000372543
   1.98635 0.000282006
   1.98786 0.000211317
   1.98921 0.000154206
   1.99041 0.000112496
   1.99148 7.9003e-05
   1.99243 5.65976e-05
   1.99333 3.89774e-05
   1.99421 2.43927e-05
    1.9951 1.41768e-05
     1.996 7.07263e-06
   1.99689 2.91341e-06
   1.99777 8.45068e-07
   1.99867 1.09445e-07
   1.99956 9.4636e-10
         2          0
