         0          0
  0.000445 7.54336e-05
  0.001335 0.000674171
  0.002225 0.00185867
  0.003115 0.00358597
  0.004005  0.0057619
  0.004895 0.00823975
  0.005785  0.0108416
  0.006675  0.0133897
0.00756867  0.0157473
0.00852095  0.0179302
0.00958982  0.0199048
 0.0107896  0.0215158
 0.0121362  0.0226433
 0.0136477  0.0232249
 0.0153442  0.0232672
 0.0172484  0.0228331
 0.0193858  0.0220216
 0.0217849  0.0209417
 0.0244777  0.0196958
 0.0275001  0.0183678
 0.0308926   0.017022
 0.0347005   0.015704
 0.0389746  0.0144463
 0.0437719  0.0132714
 0.0491566   0.012196
 0.0552005  0.0112317
 0.0619844  0.0103821
 0.0695988 0.00964252
 0.0781455 0.00900857
 0.0877386 0.00847179
 0.0985062 0.00801539
  0.110592 0.00763337
  0.124158 0.00731258
  0.139384  0.0070463
  0.156474 0.00681743
  0.175657 0.00663285
  0.197189 0.00643754
  0.221357  0.0062984
  0.248483 0.00607082
  0.278931  0.0059079
  0.314615 0.00545922
   0.35378 0.00524026
  0.392945 0.00483933
   0.43211 0.00450859
  0.471275 0.00413075
   0.51044 0.00378148
  0.549604 0.00343628
  0.588769 0.00311524
  0.627934  0.0027936
  0.667099 0.00250222
  0.706264 0.00222826
  0.745429 0.00197597
  0.784593 0.00174205
  0.823758 0.00153489
  0.862923 0.00136265
  0.902088 0.00122643
  0.941253 0.00113298
  0.980418  0.0010873
   1.01958  0.0010914
   1.05875 0.00114885
   1.09791 0.00125304
   1.13708 0.00140336
   1.17624 0.00158053
   1.21541 0.00178937
   1.25457 0.00202269
   1.29374 0.00227629
    1.3329 0.00253668
   1.37207 0.00281321
   1.41123 0.00310169
    1.4504 0.00341469
   1.48956 0.00374336
   1.52873 0.00406904
   1.56789 0.00442893
   1.60706 0.00477566
   1.64622 0.00515028
   1.68539 0.00536205
   1.72107 0.00583372
   1.75152 0.00599235
   1.77865 0.00621992
   1.80281 0.00637145
   1.82434 0.00656347
   1.84353 0.00674254
   1.86062  0.0069814
   1.87584 0.00725079
   1.88941 0.00757816
    1.9015 0.00796266
   1.91226 0.00842553
   1.92186 0.00897232
    1.9304 0.00961541
   1.93802  0.0103656
    1.9448  0.0112313
   1.95084  0.0122131
   1.95623  0.0133078
   1.96103  0.0145068
    1.9653  0.0157929
   1.96911  0.0171416
    1.9725  0.0185192
   1.97552  0.0198794
   1.97822  0.0211574
   1.98061  0.0222683
   1.98275  0.0231092
   1.98466  0.0235701
   1.98635  0.0235502
   1.98786  0.0229844
   1.98921  0.0218639
   1.99041  0.0202493
   1.99148  0.0182601
   1.99243  0.0160533
   1.99333  0.0136628
   1.99421  0.0110727
    1.9951 0.00842217
     1.996 0.00589333
   1.99689 0.00366946
   1.99777 0.00190245
   1.99867 0.000690114
   1.99956 7.7216e-05
         2          0
