         0          0
  0.000445 3.37673e-05
  0.001335 0.000252114
  0.002225 0.000605967
  0.003115 0.00103372
  0.004005  0.0014901
  0.004895 0.00194274
  0.005785 0.00237189
  0.006675 0.00276598
0.00756867 0.00312307
0.00852095 0.00346267
0.00958982 0.00379349
 0.0107896  0.0041048
 0.0121362 0.00438726
 0.0136477 0.00463122
 0.0153442 0.00483012
 0.0172484 0.00498078
 0.0193858 0.00508361
 0.0217849  0.0051424
 0.0244777 0.00516206
 0.0275001 0.00514868
 0.0308926 0.00510711
 0.0347005 0.00504164
 0.0389746 0.00495434
 0.0437719 0.00484768
 0.0491566 0.00472342
 0.0552005 0.00458393
 0.0619844 0.00443373
 0.0695988   0.004277
 0.0781455 0.00411741
 0.0877386 0.00396222
 0.0985062 0.00381869
  0.110592 0.00369447
  0.124158 0.00358926
  0.139384 0.00351134
  0.156474 0.00344166
  0.175657 0.00339753
  0.197189 0.00333391
  0.221357 0.00330528
  0.248483  0.0032073
  0.278931 0.00318032
  0.314615 0.00291965
   0.35378 0.00287052
  0.392945 0.00267457
   0.43211 0.00250768
  0.471275 0.00232047
   0.51044 0.00214766
  0.549604  0.0019782
  0.588769 0.00181605
  0.627934 0.00165032
  0.667099 0.00148295
  0.706264 0.00132836
  0.745429 0.00118315
  0.784593 0.00105446
  0.823758 0.000944139
  0.862923 0.00085409
  0.902088 0.000785682
  0.941253 0.000735573
  0.980418 0.000710412
   1.01958 0.000711105
   1.05875 0.000738253
   1.09791 0.00078854
   1.13708 0.000865101
   1.17624 0.000960343
   1.21541 0.00106696
   1.25457 0.00118989
   1.29374 0.00133092
    1.3329  0.0014788
   1.37207 0.00163826
   1.41123 0.00180005
    1.4504  0.0019852
   1.48956 0.00215587
   1.52873 0.00233133
   1.56789 0.00251993
   1.60706 0.00267046
   1.64622 0.00286265
   1.68539 0.00289773
   1.72107 0.00315813
   1.75152 0.00318442
   1.77865 0.00328159
   1.80281 0.00332563
   1.82434 0.00339735
   1.84353 0.00344592
   1.86062 0.00352591
   1.87584 0.00360976
   1.88941 0.00372238
    1.9015 0.00385227
   1.91226 0.00400067
   1.92186 0.00416124
    1.9304 0.00432661
   1.93802 0.00449128
    1.9448 0.00464774
   1.95084  0.0047917
   1.95623 0.00492083
   1.96103 0.00503222
    1.9653 0.00512428
   1.96911 0.00519412
    1.9725 0.00523894
   1.97552 0.00525403
   1.97822  0.0052347
   1.98061 0.00517524
   1.98275 0.00507099
   1.98466 0.00491836
   1.98635 0.00471708
   1.98786 0.00447021
   1.98921 0.00418412
   1.99041 0.00386841
   1.99148  0.0035325
   1.99243 0.00318727
   1.99333 0.00282395
   1.99421  0.0024226
    1.9951 0.00198515
     1.996 0.00152332
   1.99689 0.00105722
   1.99777 0.000620003
   1.99867 0.000258054
   1.99956 3.45795e-05
         2          0
