         0    387.104
  0.000445    384.789
  0.001335    381.929
  0.002225     376.11
  0.003115    362.796
  0.004005     340.81
  0.004895     312.56
  0.005785     282.72
  0.006675    255.811
0.00756867    233.485
0.00852095    215.589
0.00958982    202.146
 0.0107896    191.384
 0.0121362    181.626
 0.0136477    171.069
 0.0153442    158.569
 0.0172484     143.97
 0.0193858    127.934
 0.0217849    111.474
 0.0244777    95.5582
 0.0275001    80.8886
 0.0308926    67.8841
 0.0347005    56.7025
 0.0389746    47.2797
 0.0437719    39.4608
 0.0491566    33.0221
 0.0552005    27.7128
 0.0619844    23.3019
 0.0695988     19.597
 0.0781455    16.4123
 0.0877386    13.7015
 0.0985062    11.4114
  0.110592    9.47967
  0.124158    7.87817
  0.139384    6.56678
  0.156474    5.49733
  0.175657    4.61293
  0.197189    3.89013
  0.221357    3.26684
  0.248483    2.75206
  0.278931    2.18944
  0.314615     1.7664
   0.35378    1.52108
  0.392945     1.4149
   0.43211    1.26784
  0.471275    1.14382
   0.51044    1.01804
  0.549604   0.912138
  0.588769   0.808139
  0.627934   0.719032
  0.667099    0.63505
  0.706264   0.557057
  0.745429   0.490027
  0.784593   0.431671
  0.823758   0.383076
  0.862923   0.345139
  0.902088   0.314895
  0.941253   0.295201
  0.980418   0.287718
   1.01958   0.289862
   1.05875   0.300479
   1.09791   0.322243
   1.13708   0.353653
   1.17624    0.39389
   1.21541   0.441681
   1.25457   0.499242
   1.29374   0.565368
    1.3329   0.639075
   1.37207   0.722597
   1.41123   0.814264
    1.4504   0.914852
   1.48956     1.0219
   1.52873    1.14635
   1.56789    1.26843
   1.60706    1.41292
   1.64622    1.51488
   1.68539    1.76066
   1.72107    2.19412
   1.75152    2.75928
   1.77865    3.28206
   1.80281    3.90798
   1.82434    4.64522
   1.84353    5.54298
   1.86062    6.62822
   1.87584    7.95922
   1.88941    9.57823
    1.9015    11.5485
   1.91226    13.8952
   1.92186    16.6544
    1.9304    19.8795
   1.93802    23.6667
    1.9448    28.1569
   1.95084     33.547
   1.95623    40.1186
   1.96103      48.11
    1.9653    57.7216
   1.96911    69.1492
    1.9725    82.4758
   1.97552    97.5342
   1.97822    113.882
   1.98061    130.811
   1.98275    147.331
   1.98466    162.393
   1.98635    175.285
   1.98786    186.123
   1.98921    196.039
   1.99041    206.867
   1.99148    220.353
   1.99243    238.367
   1.99333    260.948
   1.99421    288.329
    1.9951    318.883
     1.996    347.977
   1.99689    370.743
   1.99777    384.602
   1.99867     390.68
   1.99956    393.629
         2    395.995
