         0   -45.9083
  0.000445   -45.8746
  0.001335   -45.7356
  0.002225   -45.3867
  0.003115    -44.705
  0.004005   -43.6025
  0.004895    -42.047
  0.005785   -40.0676
  0.006675   -37.7449
0.00756867   -35.1794
0.00852095   -32.3418
0.00958982   -29.1953
 0.0107896   -25.8552
 0.0121362    -22.476
 0.0136477   -19.2122
 0.0153442   -16.1909
 0.0172484   -13.4963
 0.0193858   -11.1655
 0.0217849   -9.19255
 0.0244777   -7.54023
 0.0275001   -6.16027
 0.0308926   -5.01102
 0.0347005   -4.08539
 0.0389746   -3.38205
 0.0437719   -2.83233
 0.0491566   -2.38407
 0.0552005   -1.99663
 0.0619844   -1.67523
 0.0695988   -1.48181
 0.0781455    -1.3341
 0.0877386   -1.17494
 0.0985062   -1.07145
  0.110592   -1.01952
  0.124158    -0.9607
  0.139384   -0.90573
  0.156474  -0.843637
  0.175657  -0.800706
  0.197189  -0.796171
  0.221357   -0.80064
  0.248483  -0.733511
  0.278931  -0.653985
  0.314615  -0.601957
   0.35378  -0.506753
  0.392945  -0.471445
   0.43211  -0.480541
  0.471275  -0.450798
   0.51044  -0.389841
  0.549604  -0.345033
  0.588769  -0.326895
  0.627934  -0.306988
  0.667099  -0.260014
  0.706264  -0.211723
  0.745429  -0.189045
  0.784593  -0.179674
  0.823758  -0.143352
  0.862923  -0.103219
  0.902088  -0.076195
  0.941253 -0.0423984
  0.980418 -0.0203798
   1.01958  0.0146001
   1.05875  0.0601683
   1.09791  0.0980772
   1.13708   0.142893
   1.17624   0.183662
   1.21541   0.205624
   1.25457   0.232153
   1.29374   0.267092
    1.3329   0.272827
   1.37207   0.259959
   1.41123   0.287758
    1.4504    0.31319
   1.48956   0.350459
   1.52873    0.41095
   1.56789   0.466783
   1.60706   0.477082
   1.64622   0.489601
   1.68539   0.602771
   1.72107   0.637893
   1.75152   0.664032
   1.77865   0.723726
   1.80281   0.766897
   1.82434   0.819436
   1.84353   0.844906
   1.86062   0.874508
   1.87584   0.897126
   1.88941   0.987995
    1.9015    1.08619
   1.91226    1.14698
   1.92186    1.27898
    1.9304    1.47545
   1.93802    1.72487
    1.9448     2.0288
   1.95084    2.41077
   1.95623    2.91442
   1.96103     3.5179
    1.9653    4.22864
   1.96911    5.08821
    1.9725     6.1538
   1.97552    7.48571
   1.97822    9.12394
   1.98061    11.1041
   1.98275    13.4579
   1.98466    16.1935
   1.98635    19.2751
   1.98786    22.6124
   1.98921    26.0662
   1.99041    29.4711
   1.99148    32.6666
   1.99243    35.5371
   1.99333    38.1214
   1.99421    40.4503
    1.9951    42.4259
     1.996      43.97
   1.99689     45.057
   1.99777    45.7232
   1.99867    46.0598
   1.99956    46.1918
         2    46.2237
