         0   -1.33968
  0.000445   -1.32816
  0.001335    -3.8464
  0.002225   -5.68289
  0.003115   -6.41776
  0.004005   -5.88777
  0.004895   -4.18972
  0.005785   -1.61623
  0.006675    1.44707
0.00756867    4.60629
0.00852095     7.7121
0.00958982    10.6805
 0.0107896    13.2083
 0.0121362    15.1296
 0.0136477    16.3454
 0.0153442    16.8816
 0.0172484     16.818
 0.0193858    16.2906
 0.0217849    15.4295
 0.0244777    14.3609
 0.0275001    13.1794
 0.0308926    11.9595
 0.0347005    10.7515
 0.0389746    9.59261
 0.0437719    8.50931
 0.0491566    7.51917
 0.0552005    6.62872
 0.0619844    5.84132
 0.0695988    5.15839
 0.0781455    4.57922
 0.0877386    4.08807
 0.0985062    3.67048
  0.110592    3.31437
  0.124158    3.00536
  0.139384    2.73199
  0.156474    2.47705
  0.175657    2.25195
  0.197189     2.0323
  0.221357    1.85024
  0.248483    1.67193
  0.278931    1.51959
  0.314615    1.34934
   0.35378    1.19255
  0.392945    1.03373
   0.43211   0.904512
  0.471275   0.783153
   0.51044   0.680328
  0.549604   0.583562
  0.588769   0.502664
  0.627934    0.42876
  0.667099   0.362585
  0.706264   0.302086
  0.745429    0.24839
  0.784593   0.199532
  0.823758   0.154961
  0.862923   0.115194
  0.902088  0.0795434
  0.941253  0.0447899
  0.980418   0.011482
   1.01958 -0.0207155
   1.05875 -0.0530996
   1.09791 -0.0865696
   1.13708  -0.121745
   1.17624  -0.159972
   1.21541  -0.200955
   1.25457  -0.247356
   1.29374  -0.298135
    1.3329  -0.353779
   1.37207  -0.415516
   1.41123  -0.485008
    1.4504  -0.565392
   1.48956  -0.656519
   1.52873  -0.761558
   1.56789    -0.8819
   1.60706   -1.01037
   1.64622     -1.165
   1.68539   -1.32587
   1.72107   -1.49913
   1.75152   -1.65572
   1.77865   -1.84239
   1.80281    -2.0264
   1.82434   -2.24597
   1.84353   -2.47375
   1.86062   -2.73292
   1.87584   -3.01341
   1.88941   -3.33151
    1.9015   -3.69317
   1.91226   -4.11574
   1.92186   -4.61548
    1.9304   -5.20718
   1.93802   -5.89916
    1.9448   -6.69957
   1.95084   -7.60899
   1.95623   -8.62047
   1.96103   -9.72302
    1.9653   -10.9035
   1.96911   -12.1359
    1.9725    -13.379
   1.97552   -14.5853
   1.97822   -15.6825
   1.98061   -16.5742
   1.98275   -17.1315
   1.98466   -17.2208
   1.98635   -16.7027
   1.98786   -15.4929
   1.98921   -13.5612
   1.99041   -11.0043
   1.99148   -7.98795
   1.99243   -4.81989
   1.99333   -1.58539
   1.99421    1.56291
    1.9951     4.2197
     1.996    5.98524
   1.99689    6.55308
   1.99777      5.818
   1.99867    3.94423
   1.99956    1.36318
         2    1.37553
