         0     171.17
  0.000445    148.795
  0.001335    112.974
  0.002225    86.1709
  0.003115    67.0754
  0.004005    55.2808
  0.004895    49.8766
  0.005785    49.2601
  0.006675     51.553
0.00756867    54.9289
0.00852095    58.2277
0.00958982    61.0593
 0.0107896    62.6945
 0.0121362    62.9802
 0.0136477    61.9437
 0.0153442    59.7898
 0.0172484     56.748
 0.0193858    53.0897
 0.0217849    49.0555
 0.0244777    44.8592
 0.0275001    40.6544
 0.0308926     36.551
 0.0347005    32.6187
 0.0389746    28.9218
 0.0437719    25.4815
 0.0491566    22.3197
 0.0552005    19.4488
 0.0619844     16.871
 0.0695988    14.5987
 0.0781455    12.6387
 0.0877386    10.9592
 0.0985062    9.53705
  0.110592    8.34314
  0.124158    7.34048
  0.139384    6.49007
  0.156474    5.75539
  0.175657    5.10839
  0.197189    4.53649
  0.221357    4.00781
  0.248483    3.54376
  0.278931    3.02297
  0.314615    2.58348
   0.35378     2.2981
  0.392945    2.12522
   0.43211    1.91633
  0.471275    1.71909
   0.51044    1.53027
  0.549604    1.35818
  0.588769    1.20208
  0.627934     1.0541
  0.667099      0.916
  0.706264   0.790801
  0.745429    0.67923
  0.784593   0.582113
  0.823758   0.500672
  0.862923   0.435031
  0.902088     0.3872
  0.941253   0.355183
  0.980418   0.338673
   1.01958   0.340233
   1.05875   0.358329
   1.09791   0.394446
   1.13708    0.44685
   1.17624   0.513561
   1.21541   0.594831
   1.25457   0.692684
   1.29374   0.804066
    1.3329   0.923093
   1.37207    1.05488
   1.41123    1.20106
    1.4504    1.35623
   1.48956    1.52768
   1.52873    1.71596
   1.56789    1.90992
   1.60706    2.11496
   1.64622    2.28107
   1.68539    2.56249
   1.72107    3.00973
   1.75152    3.53773
   1.77865    4.01294
   1.80281    4.53836
   1.82434    5.11016
   1.84353     5.7621
   1.86062    6.50488
   1.87584    7.36969
   1.88941    8.38834
    1.9015    9.60348
   1.91226    11.0466
   1.92186    12.7586
    1.9304    14.7645
   1.93802    17.0738
    1.9448    19.7063
   1.95084    22.6558
   1.95623    25.8886
   1.96103    29.4068
    1.9653    33.1822
   1.96911    37.1927
    1.9725    41.3783
   1.97552    45.6769
   1.97822    49.9839
   1.98061    54.1404
   1.98275    57.9325
   1.98466    61.1108
   1.98635    63.3843
   1.98786     64.512
   1.98921    64.2863
   1.99041     62.676
   1.99148    59.8247
   1.99243    56.4693
   1.99333    52.9962
   1.99421    50.5873
    1.9951    51.1235
     1.996    56.5544
   1.99689    68.5565
   1.99777    88.0874
   1.99867    115.564
   1.99956    152.318
         2    175.287
