         0  0.0863868
  0.000445  0.0863868
  0.001335   0.776412
  0.002225    2.14226
  0.003115    4.13167
  0.004005     6.6369
  0.004895    9.49501
  0.005785     12.508
  0.006675    15.4754
0.00756867    18.2374
0.00852095    20.8047
0.00958982    23.1334
 0.0107896    25.0299
 0.0121362    26.3371
 0.0136477    26.9701
 0.0153442    26.9308
 0.0172484    26.2977
 0.0193858    25.1973
 0.0217849     23.771
 0.0244777    22.1491
 0.0275001    20.4385
 0.0308926    18.7182
 0.0347005    17.0436
 0.0389746    15.4525
 0.0437719    13.9692
 0.0491566    12.6073
 0.0552005    11.3734
 0.0619844    10.2676
 0.0695988     9.2862
 0.0781455    8.42034
 0.0877386    7.65943
 0.0985062    6.99087
  0.110592    6.40817
  0.124158     5.8965
  0.139384    5.45781
  0.156474    5.07015
  0.175657    4.75229
  0.197189    4.45565
  0.221357    4.22984
  0.248483    3.96415
  0.278931    3.75772
  0.314615    3.30585
   0.35378     3.0547
  0.392945    2.68379
   0.43211    2.37045
  0.471275     2.0573
   0.51044    1.79839
  0.549604    1.55666
  0.588769    1.34987
  0.627934    1.15789
  0.667099   0.989432
  0.706264   0.841753
  0.745429   0.713088
  0.784593   0.605475
  0.823758   0.514833
  0.862923   0.443084
  0.902088   0.390317
  0.941253   0.354874
  0.980418   0.338791
   1.01958   0.341338
   1.05875   0.360784
   1.09791   0.398635
   1.13708   0.455522
   1.17624    0.52822
   1.21541   0.617673
   1.25457    0.72737
   1.29374   0.851823
    1.3329   0.994935
   1.37207    1.15174
   1.41123    1.33068
    1.4504    1.53927
   1.48956    1.77094
   1.52873    2.03229
   1.56789    2.33908
   1.60706    2.64577
   1.64622    3.00379
   1.68539    3.26252
   1.72107     3.7354
   1.75152    3.94909
   1.77865    4.21509
   1.80281    4.45764
   1.82434    4.76357
   1.84353    5.08518
   1.86062    5.48468
   1.87584    5.93621
   1.88941    6.46026
    1.9015    7.05147
   1.91226    7.72914
   1.92186    8.50223
    1.9304    9.38183
   1.93802    10.3797
    1.9448    11.5025
   1.95084    12.7536
   1.95623    14.1336
   1.96103    15.6385
    1.9653    17.2546
   1.96911     18.957
    1.9725    20.7079
   1.97552    22.4511
   1.97822    24.1066
   1.98061    25.5664
   1.98275    26.6985
   1.98466    27.3601
   1.98635    27.4224
   1.98786    26.8038
   1.98921    25.4993
   1.99041    23.5921
   1.99148     21.239
   1.99243    18.6361
   1.99333     15.828
   1.99421    12.8038
    1.9951    9.72699
     1.996    6.80329
   1.99689    4.23719
   1.99777    2.19761
   1.99867   0.796584
   1.99956   0.088635
         2   0.088635
