         0   -45.9156
  0.000445   -45.8839
  0.001335   -45.7528
  0.002225   -45.4181
  0.003115    -44.755
  0.004005   -43.6738
  0.004895   -42.1397
  0.005785   -40.1793
  0.006675   -37.8713
0.00756867   -35.3144
0.00852095   -32.4788
0.00958982   -29.3263
 0.0107896   -25.9701
 0.0121362   -22.5651
 0.0136477   -19.2698
 0.0153442   -16.2174
 0.0172484   -13.4965
 0.0193858    -11.146
 0.0217849   -9.16259
 0.0244777   -7.51546
 0.0275001   -6.16131
 0.0308926   -5.05421
 0.0347005   -4.15176
 0.0389746   -3.41891
 0.0437719   -2.82631
 0.0491566   -2.35127
 0.0552005   -1.97619
 0.0619844   -1.68491
 0.0695988    -1.4622
 0.0781455   -1.29379
 0.0877386   -1.16867
 0.0985062   -1.07491
  0.110592   -1.00222
  0.124158  -0.944599
  0.139384  -0.900589
  0.156474  -0.858177
  0.175657  -0.823701
  0.197189  -0.776572
  0.221357  -0.746387
  0.248483  -0.681477
  0.278931  -0.625756
  0.314615  -0.615601
   0.35378  -0.536654
  0.392945  -0.481929
   0.43211  -0.446857
  0.471275  -0.407556
   0.51044   -0.38304
  0.549604  -0.350524
  0.588769  -0.321694
  0.627934  -0.292403
  0.667099  -0.264168
  0.706264  -0.236608
  0.745429  -0.207418
  0.784593  -0.179088
  0.823758  -0.148021
  0.862923  -0.114314
  0.902088 -0.0834786
  0.941253 -0.0507546
  0.980418 -0.0155193
   1.01958  0.0207698
   1.05875  0.0557276
   1.09791  0.0884876
   1.13708   0.118674
   1.17624   0.147398
   1.21541   0.174507
   1.25457   0.200979
   1.29374   0.227177
    1.3329   0.256197
   1.37207   0.281046
   1.41123    0.30647
    1.4504   0.335393
   1.48956   0.365962
   1.52873   0.396352
   1.56789   0.435732
   1.60706   0.469286
   1.64622   0.527101
   1.68539   0.603293
   1.72107   0.614453
   1.75152   0.674004
   1.77865   0.737551
   1.80281   0.770269
   1.82434   0.820072
   1.84353   0.856045
   1.86062   0.898682
   1.87584    0.94298
   1.88941    1.00236
    1.9015    1.07475
   1.91226     1.1714
   1.92186    1.29856
    1.9304    1.46793
   1.93802    1.69142
    1.9448    1.98225
   1.95084    2.35749
   1.95623    2.83391
   1.96103    3.42981
    1.9653    4.16721
   1.96911    5.07525
    1.9725    6.19024
   1.97552    7.55372
   1.97822    9.21107
   1.98061    11.2062
   1.98275    13.5708
   1.98466    16.3093
   1.98635     19.385
   1.98786    22.7104
   1.98921    26.1518
   1.99041    29.5497
   1.99148     32.747
   1.99243    35.6278
   1.99333    38.2299
   1.99421    40.5829
    1.9951    42.5848
     1.996    44.1536
   1.99689    45.2603
   1.99777    45.9391
   1.99867    46.2816
   1.99956     46.415
         2    46.4469
