         0 0.00430743
  0.000445 0.00430743
  0.001335 0.00430743
  0.002225 0.00430742
  0.003115 0.00430741
  0.004005 0.00430737
  0.004895 0.00430729
  0.005785 0.00430717
  0.006675 0.00430699
0.00756867 0.00430673
0.00852095 0.00430635
0.00958982 0.00430578
 0.0107896 0.00430493
 0.0121362 0.00430366
 0.0136477 0.00430178
 0.0153442 0.00429904
 0.0172484 0.00429509
 0.0193858 0.00428943
 0.0217849 0.00428144
 0.0244777 0.00427029
 0.0275001 0.00425493
 0.0308926 0.00423404
 0.0347005 0.00420604
 0.0389746 0.00416902
 0.0437719  0.0041208
 0.0491566 0.00405892
 0.0552005 0.00398067
 0.0619844 0.00388319
 0.0695988 0.00376339
 0.0781455 0.00361834
 0.0877386 0.00344595
 0.0985062 0.00324535
  0.110592 0.00301817
  0.124158 0.00277165
  0.139384 0.00251867
  0.156474 0.00226657
  0.175657 0.00202834
  0.197189 0.00182759
  0.221357 0.00168391
  0.248483 0.00159058
  0.278931 0.00153021
  0.314615 0.00153625
   0.35378 0.00163394
  0.392945 0.00175384
   0.43211 0.00185753
  0.471275 0.00196939
   0.51044 0.00211014
  0.549604 0.00223841
  0.588769 0.00232358
  0.627934 0.00236938
  0.667099 0.00241592
  0.706264 0.00247019
  0.745429 0.00252917
  0.784593 0.00259466
  0.823758 0.00265507
  0.862923  0.0027217
  0.902088 0.00280165
  0.941253 0.00288253
  0.980418 0.00295795
   1.01958  0.0030212
   1.05875 0.00306095
   1.09791 0.00308599
   1.13708 0.00310384
   1.17624  0.0031088
   1.21541 0.00308846
   1.25457 0.00303129
   1.29374 0.00293009
    1.3329 0.00278164
   1.37207 0.00260957
   1.41123 0.00245178
    1.4504  0.0023327
   1.48956 0.00221158
   1.52873 0.00206654
   1.56789 0.00190932
   1.60706 0.00174579
   1.64622 0.00164364
   1.68539 0.00159296
   1.72107 0.00156509
   1.75152 0.00161648
   1.77865 0.00174329
   1.80281 0.00190348
   1.82434 0.00210258
   1.84353 0.00233951
   1.86062 0.00259393
   1.87584  0.0028459
   1.88941 0.00308576
    1.9015 0.00330532
   1.91226 0.00349861
   1.92186 0.00366388
    1.9304 0.00380237
   1.93802 0.00391644
    1.9448 0.00400882
   1.95084 0.00408227
   1.95623 0.00413969
   1.96103 0.00418386
    1.9653 0.00421732
   1.96911 0.00424231
    1.9725 0.00426071
   1.97552 0.00427408
   1.97822 0.00428367
   1.98061 0.00429047
   1.98275 0.00429523
   1.98466 0.00429853
   1.98635 0.00430079
   1.98786 0.00430233
   1.98921 0.00430336
   1.99041 0.00430406
   1.99148 0.00430452
   1.99243 0.00430482
   1.99333 0.00430503
   1.99421 0.00430517
    1.9951 0.00430527
     1.996 0.00430533
   1.99689 0.00430536
   1.99777 0.00430537
   1.99867 0.00430538
   1.99956 0.00430538
         2 0.00430538
