         0 0.00197808
  0.000445 0.00197808
  0.001335 0.00197808
  0.002225 0.00197807
  0.003115 0.00197806
  0.004005 0.00197803
  0.004895 0.00197797
  0.005785 0.00197787
  0.006675 0.00197772
0.00756867  0.0019775
0.00852095 0.00197719
0.00958982 0.00197672
 0.0107896 0.00197602
 0.0121362 0.00197496
 0.0136477 0.00197341
 0.0153442 0.00197113
 0.0172484 0.00196782
 0.0193858 0.00196307
 0.0217849 0.00195633
 0.0244777 0.00194687
 0.0275001 0.00193378
 0.0308926 0.00191588
 0.0347005 0.00189173
 0.0389746 0.00185961
 0.0437719 0.00181745
 0.0491566 0.00176291
 0.0552005 0.00169335
 0.0619844 0.00160599
 0.0695988  0.0014981
 0.0781455 0.00136729
 0.0877386 0.00121201
 0.0985062 0.00103203
  0.110592 0.000828963
  0.124158 0.000606815
  0.139384 0.000372219
  0.156474 0.000134471
  0.175657 -9.47633e-05
  0.197189 -0.000302282
  0.221357 -0.000474593
  0.248483 -0.000602421
  0.278931 -0.00067202
  0.314615 -0.000677481
   0.35378 -0.000637864
  0.392945 -0.000568418
   0.43211 -0.000476584
  0.471275 -0.000376684
   0.51044 -0.000272064
  0.549604 -0.000168858
  0.588769 -6.81865e-05
  0.627934   2.81e-05
  0.667099 0.00011867
  0.706264 0.000202818
  0.745429 0.000279643
  0.784593 0.000347752
  0.823758 0.000405934
  0.862923 0.000453209
  0.902088 0.000488721
  0.941253 0.00051201
  0.980418 0.000523435
   1.01958 0.000523489
   1.05875 0.000512023
   1.09791 0.000489098
   1.13708 0.000454902
   1.17624 0.000409603
   1.21541 0.000353424
   1.25457 0.00028653
   1.29374 0.000209599
    1.3329 0.000124511
   1.37207 3.22532e-05
   1.41123 -6.63287e-05
    1.4504 -0.000169651
   1.48956 -0.000275424
   1.52873 -0.000381726
   1.56789 -0.000483451
   1.60706 -0.000576929
   1.64622 -0.000646862
   1.68539 -0.000687573
   1.72107 -0.000684135
   1.75152 -0.000616194
   1.77865 -0.000489271
   1.80281 -0.000316551
   1.82434 -0.000108148
   1.84353 0.000122011
   1.86062 0.000360717
   1.87584 0.000596259
   1.88941 0.000819364
    1.9015 0.00102339
   1.91226 0.00120433
   1.92186 0.00136056
    1.9304 0.00149229
   1.93802 0.00160109
    1.9448 0.00168929
   1.95084 0.00175961
   1.95623 0.00181482
   1.96103 0.00185754
    1.9653 0.00189014
   1.96911 0.00191467
    1.9725 0.00193288
   1.97552 0.00194622
   1.97822 0.00195585
   1.98061 0.00196273
   1.98275 0.00196758
   1.98466 0.00197096
   1.98635 0.00197329
   1.98786 0.00197489
   1.98921 0.00197597
   1.99041 0.00197669
   1.99148 0.00197717
   1.99243 0.00197749
   1.99333 0.00197771
   1.99421 0.00197786
    1.9951 0.00197796
     1.996 0.00197803
   1.99689 0.00197806
   1.99777 0.00197807
   1.99867 0.00197808
   1.99956 0.00197808
         2 0.00197808
