         0 8.32265e-05
  0.000445 8.32265e-05
  0.001335 8.31887e-05
  0.002225 8.31484e-05
  0.003115 8.3115e-05
  0.004005 8.30884e-05
  0.004895 8.30674e-05
  0.005785 8.30517e-05
  0.006675 8.30413e-05
0.00756867 8.30362e-05
0.00852095 8.30363e-05
0.00958982 8.30435e-05
 0.0107896 8.30603e-05
 0.0121362 8.30901e-05
 0.0136477 8.3137e-05
 0.0153442 8.32061e-05
 0.0172484 8.33037e-05
 0.0193858 8.34374e-05
 0.0217849 8.36163e-05
 0.0244777 8.3851e-05
 0.0275001 8.41538e-05
 0.0308926 8.4538e-05
 0.0347005 8.50182e-05
 0.0389746 8.56095e-05
 0.0437719 8.63262e-05
 0.0491566 8.7181e-05
 0.0552005 8.81824e-05
 0.0619844 8.93323e-05
 0.0695988 9.06222e-05
 0.0781455 9.20293e-05
 0.0877386 9.3513e-05
 0.0985062 9.50117e-05
  0.110592 9.64425e-05
  0.124158 9.7702e-05
  0.139384 9.86705e-05
  0.156474 9.92244e-05
  0.175657 9.92558e-05
  0.197189 9.86826e-05
  0.221357 9.74594e-05
  0.248483 9.55945e-05
  0.278931 9.31814e-05
  0.314615 9.02146e-05
   0.35378 8.66104e-05
  0.392945 8.3212e-05
   0.43211 8.00337e-05
  0.471275 7.70309e-05
   0.51044 7.42144e-05
  0.549604 7.15737e-05
  0.588769 6.91014e-05
  0.627934 6.67912e-05
  0.667099 6.46447e-05
  0.706264 6.26672e-05
  0.745429 6.08846e-05
  0.784593 5.93187e-05
  0.823758 5.79822e-05
  0.862923 5.68891e-05
  0.902088 5.60593e-05
  0.941253 5.55074e-05
  0.980418 5.52411e-05
   1.01958 5.52624e-05
   1.05875 5.55718e-05
   1.09791 5.61633e-05
   1.13708 5.70234e-05
   1.17624 5.81349e-05
   1.21541 5.94727e-05
   1.25457 6.10249e-05
   1.29374 6.27757e-05
    1.3329 6.47016e-05
   1.37207 6.67952e-05
   1.41123 6.90722e-05
    1.4504 7.15409e-05
   1.48956 7.42058e-05
   1.52873 7.70542e-05
   1.56789 8.01142e-05
   1.60706 8.33813e-05
   1.64622 8.68657e-05
   1.68539  9.057e-05
   1.72107 9.36488e-05
   1.75152 9.61553e-05
   1.77865 9.80479e-05
   1.80281 9.92652e-05
   1.82434 9.98322e-05
   1.84353 9.98117e-05
   1.86062 9.92873e-05
   1.87584 9.83581e-05
   1.88941 9.71342e-05
    1.9015 9.57268e-05
   1.91226 9.42379e-05
   1.92186 9.27526e-05
    1.9304 9.13351e-05
   1.93802 9.0029e-05
    1.9448 8.88596e-05
   1.95084 8.78377e-05
   1.95623 8.69631e-05
   1.96103 8.6228e-05
    1.9653 8.56205e-05
   1.96911 8.51264e-05
    1.9725 8.47306e-05
   1.97552 8.44184e-05
   1.97822 8.41761e-05
   1.98061 8.39913e-05
   1.98275 8.38531e-05
   1.98466 8.37521e-05
   1.98635 8.36805e-05
   1.98786 8.36319e-05
   1.98921 8.36008e-05
   1.99041 8.35832e-05
   1.99148 8.35755e-05
   1.99243 8.35752e-05
   1.99333 8.35803e-05
   1.99421 8.35907e-05
    1.9951 8.36066e-05
     1.996 8.3628e-05
   1.99689 8.36552e-05
   1.99777 8.36893e-05
   1.99867 8.37305e-05
   1.99956 8.37693e-05
         2 8.37693e-05
