         0          0
  0.000445 -1.19223e-07
  0.001335 -2.27894e-06
  0.002225 -1.02633e-05
  0.003115 -2.80767e-05
  0.004005 -5.97915e-05
  0.004895 -0.000109496
  0.005785 -0.000181227
  0.006675 -0.000278902
0.00756867 -0.000406838
0.00852095 -0.000580168
0.00958982 -0.000824564
 0.0107896 -0.00116693
 0.0121362 -0.00164248
 0.0136477 -0.00229572
 0.0153442 -0.00318035
 0.0172484 -0.00435672
 0.0193858 -0.0058858
 0.0217849 -0.00781787
 0.0244777 -0.0101758
 0.0275001 -0.0129338
 0.0308926 -0.0159959
 0.0347005 -0.0191819
 0.0389746 -0.0222293
 0.0437719   -0.02482
 0.0491566 -0.0266326
 0.0552005 -0.0274115
 0.0619844 -0.0270318
 0.0695988 -0.0255356
 0.0781455 -0.0231219
 0.0877386 -0.0200923
 0.0985062 -0.0167767
  0.110592 -0.0134671
  0.124158 -0.0103777
  0.139384 -0.00763084
  0.156474 -0.00527415
  0.175657 -0.0033112
  0.197189 -0.00173128
  0.221357 -0.000473644
  0.248483 0.000520015
  0.278931 0.00124144
  0.314615 0.00187817
   0.35378  0.0023433
  0.392945 0.00266018
   0.43211 0.00291496
  0.471275 0.00312267
   0.51044 0.00328043
  0.549604 0.00341694
  0.588769  0.0035349
  0.627934  0.0036431
  0.667099 0.00374056
  0.706264 0.00381882
  0.745429 0.00388036
  0.784593 0.00393208
  0.823758 0.00397176
  0.862923 0.00399782
  0.902088 0.00401514
  0.941253  0.0040265
  0.980418 0.00403077
   1.01958  0.0040297
   1.05875 0.00402446
   1.09791 0.00401268
   1.13708 0.00399062
   1.17624 0.00395921
   1.21541 0.00391704
   1.25457 0.00386629
   1.29374 0.00381693
    1.3329 0.00375501
   1.37207 0.00366315
   1.41123 0.00355393
    1.4504 0.00342733
   1.48956 0.00328337
   1.52873 0.00311827
   1.56789 0.00291438
   1.60706 0.00267001
   1.64622 0.00234834
   1.68539 0.00187242
   1.72107 0.00123962
   1.75152 0.000530703
   1.77865 -0.000438243
   1.80281 -0.00168628
   1.82434 -0.00327377
   1.84353 -0.00525157
   1.86062 -0.00762872
   1.87584  -0.010391
   1.88941 -0.0134921
    1.9015 -0.0168183
   1.91226 -0.0201643
   1.92186 -0.0232384
    1.9304 -0.0257041
   1.93802 -0.0272513
    1.9448 -0.0276737
   1.95084 -0.0269234
   1.95623 -0.0251227
   1.96103 -0.0225271
    1.9653 -0.0194607
   1.96911 -0.0162456
    1.9725 -0.0131489
   1.97552 -0.0103548
   1.97822 -0.0079623
   1.98061 -0.00599922
   1.98275 -0.00444372
   1.98466 -0.00324574
   1.98635 -0.00234405
   1.98786 -0.00167769
   1.98921 -0.0011923
   1.99041 -0.000842679
   1.99148 -0.00059301
   1.99243 -0.00041589
   1.99333 -0.000285128
   1.99421 -0.00018528
    1.9951 -0.000111946
     1.996 -6.11283e-05
   1.99689 -2.87032e-05
   1.99777 -1.04916e-05
   1.99867 -2.32945e-06
   1.99956 -1.21856e-07
         2          0
