         0          0
  0.000445 -3.4801e-05
  0.001335 -9.63716e-05
  0.002225 -0.000150354
  0.003115 -0.000197562
  0.004005 -0.000238631
  0.004895 -0.000274129
  0.005785 -0.000304621
  0.006675 -0.000330634
0.00756867 -0.000352734
0.00852095 -0.00037244
0.00958982 -0.000390308
 0.0107896 -0.000405735
 0.0121362 -0.000418128
 0.0136477 -0.000426941
 0.0153442 -0.000431725
 0.0172484 -0.000432165
 0.0193858 -0.000428109
 0.0217849 -0.000419568
 0.0244777 -0.000406675
 0.0275001 -0.000389592
 0.0308926 -0.000368366
 0.0347005 -0.000342764
 0.0389746 -0.000312162
 0.0437719 -0.000275571
 0.0491566 -0.000231918
 0.0552005 -0.000180622
 0.0619844 -0.000122331
 0.0695988 -5.95308e-05
 0.0781455 3.34861e-06
 0.0877386 6.05829e-05
 0.0985062 0.00010637
  0.110592 0.000136095
  0.124158 0.000147354
  0.139384 0.000140749
  0.156474 0.000120306
  0.175657 9.28073e-05
  0.197189 6.54019e-05
  0.221357 4.25398e-05
  0.248483 2.33334e-05
  0.278931 2.04782e-05
  0.314615 5.05319e-05
   0.35378 3.47362e-05
  0.392945 3.27925e-05
   0.43211 3.53927e-05
  0.471275 3.64004e-05
   0.51044 3.67558e-05
  0.549604 3.59586e-05
  0.588769 3.5634e-05
  0.627934 3.47491e-05
  0.667099 3.31379e-05
  0.706264 3.07651e-05
  0.745429 2.86823e-05
  0.784593 2.72194e-05
  0.823758 2.51644e-05
  0.862923 2.19173e-05
  0.902088 1.8573e-05
  0.941253 1.64117e-05
  0.980418 1.5451e-05
   1.01958 1.52406e-05
   1.05875 1.57785e-05
   1.09791 1.72977e-05
   1.13708 1.93874e-05
   1.17624 2.15598e-05
   1.21541 2.43212e-05
   1.25457 2.72727e-05
   1.29374 2.94621e-05
    1.3329 3.21639e-05
   1.37207 3.55337e-05
   1.41123 3.77375e-05
    1.4504 3.84907e-05
   1.48956 3.79149e-05
   1.52873 3.61315e-05
   1.56789 3.38812e-05
   1.60706 3.0576e-05
   1.64622 3.17733e-05
   1.68539 4.69221e-05
   1.72107 1.87583e-05
   1.75152 2.68603e-05
   1.77865 4.47569e-05
   1.80281 6.52043e-05
   1.82434 9.19495e-05
   1.84353 0.000120058
   1.86062 0.000141751
   1.87584 0.00014997
   1.88941 0.000140425
    1.9015 0.000112111
   1.91226 6.71547e-05
   1.92186 1.01785e-05
    1.9304 -5.29977e-05
   1.93802 -0.000116689
    1.9448 -0.000176416
   1.95084 -0.000229503
   1.95623 -0.000275059
   1.96103 -0.000313459
    1.9653 -0.000345652
   1.96911 -0.000372589
    1.9725 -0.000394907
   1.97552 -0.000412868
   1.97822 -0.000426457
   1.98061 -0.000435535
   1.98275 -0.000439986
   1.98466 -0.000439808
   1.98635 -0.000435162
   1.98786 -0.000426374
   1.98921 -0.000413903
   1.99041 -0.000398307
   1.99148 -0.000380194
   1.99243 -0.000360178
   1.99333 -0.000337702
   1.99421 -0.000311214
    1.9951 -0.000280135
     1.996 -0.000243923
   1.99689 -0.000201996
   1.99777 -0.000153768
   1.99867 -9.85865e-05
   1.99956 -3.56123e-05
         2          0
