         0          0
  0.000445  -0.156183
  0.001335  -0.451669
  0.002225  -0.742554
  0.003115   -1.04229
  0.004005    -1.3639
  0.004895   -1.72081
  0.005785    -2.1265
  0.006675   -2.59349
0.00756867   -3.13595
0.00852095   -3.80681
0.00958982   -4.69023
 0.0107896   -5.86328
 0.0121362   -7.42712
 0.0136477   -9.50953
 0.0153442   -12.2648
 0.0172484   -15.8668
 0.0193858   -20.4912
 0.0217849    -26.283
 0.0244777   -33.3086
 0.0275001   -41.4944
 0.0308926   -50.5644
 0.0347005   -59.9996
 0.0389746    -69.043
 0.0437719   -76.7768
 0.0491566   -82.2733
 0.0552005   -84.7947
 0.0619844   -83.9823
 0.0695988   -79.9614
 0.0781455   -73.3121
 0.0877386    -64.912
 0.0985062   -55.7184
  0.110592   -46.5771
  0.124158   -38.1027
  0.139384     -30.64
  0.156474   -24.3127
  0.175657   -19.1125
  0.197189   -14.9857
  0.221357   -11.7469
  0.248483   -9.24014
  0.278931   -7.43635
  0.314615   -5.74468
   0.35378   -4.67892
  0.392945   -3.97002
   0.43211   -3.40285
  0.471275   -2.95609
   0.51044    -2.6385
  0.549604   -2.38602
  0.588769   -2.18519
  0.627934   -2.00626
  0.667099   -1.85267
  0.706264   -1.74917
  0.745429   -1.68175
  0.784593    -1.6284
  0.823758   -1.60045
  0.862923   -1.60202
  0.902088   -1.61262
  0.941253   -1.61923
  0.980418    -1.6232
   1.01958   -1.62159
   1.05875     -1.613
   1.09791   -1.60366
   1.13708   -1.60669
   1.17624   -1.62215
   1.21541   -1.65376
   1.25457   -1.70129
   1.29374   -1.74259
    1.3329   -1.81331
   1.37207   -1.96074
   1.41123   -2.15244
    1.4504   -2.38808
   1.48956   -2.66767
   1.52873   -3.00012
   1.56789   -3.43217
   1.60706   -3.96474
   1.64622   -4.68118
   1.68539   -5.77283
   1.72107   -7.44819
   1.75152   -9.20538
   1.77865   -11.6488
   1.80281   -14.8674
   1.82434   -19.0178
   1.84353   -24.2593
   1.86062   -30.6415
   1.87584   -38.1438
   1.88941   -46.6464
    1.9015   -55.8302
   1.91226   -65.1075
   1.92186   -73.6343
    1.9304   -80.4344
   1.93802   -84.6061
    1.9448   -85.5471
   1.95084   -83.1149
   1.95623   -77.6592
   1.96103   -69.9171
    1.9653   -60.8236
   1.96911   -51.3083
    1.9725   -42.1411
   1.97552   -33.8531
   1.97822   -26.7291
   1.98061   -20.8486
   1.98275   -16.1485
   1.98466   -12.4842
   1.98635   -9.67939
   1.98786   -7.55861
   1.98921   -5.96556
   1.99041   -4.77056
   1.99148   -3.87073
   1.99243   -3.18761
   1.99333   -2.63543
   1.99421   -2.16032
    1.9951   -1.74781
     1.996   -1.38514
   1.99689   -1.05853
   1.99777  -0.754204
   1.99867  -0.458866
   1.99956   -0.15874
         2          0
