         0          0
  0.000445 5.1186e-10
  0.001335    1.5e-09
  0.002225 2.33961e-09
  0.003115 2.93784e-09
  0.004005 3.35902e-09
  0.004895 3.57483e-09
  0.005785 3.57965e-09
  0.006675 4.07897e-09
0.00756867 6.96245e-09
0.00852095 1.26235e-08
0.00958982 2.01498e-08
 0.0107896 3.03311e-08
 0.0121362 4.44917e-08
 0.0136477 6.35808e-08
 0.0153442 8.80214e-08
 0.0172484 1.1733e-07
 0.0193858 1.49379e-07
 0.0217849 1.79398e-07
 0.0244777 1.98846e-07
 0.0275001 1.94303e-07
 0.0308926 1.46369e-07
 0.0347005 2.79051e-08
 0.0389746 -2.00414e-07
 0.0437719 -5.99623e-07
 0.0491566 -1.2665e-06
 0.0552005 -2.34187e-06
 0.0619844 -3.99211e-06
 0.0695988 -6.35013e-06
 0.0781455 -9.43722e-06
 0.0877386 -1.31185e-05
 0.0985062 -1.70971e-05
  0.110592 -2.09097e-05
  0.124158 -2.38958e-05
  0.139384 -2.5273e-05
  0.156474 -2.4797e-05
  0.175657 -2.15724e-05
  0.197189 -1.69376e-05
  0.221357 -6.89684e-06
  0.248483 -1.48958e-05
  0.278931 6.2972e-06
  0.314615 1.6964e-05
   0.35378 -1.39026e-05
  0.392945 1.38026e-05
   0.43211 -7.70998e-06
  0.471275 2.5826e-06
   0.51044 -4.86854e-06
  0.549604 -3.24662e-06
  0.588769 -3.9214e-06
  0.627934 -3.09608e-06
  0.667099 -3.93061e-06
  0.706264 -2.67694e-06
  0.745429 -2.23634e-06
  0.784593 -2.09464e-06
  0.823758 -1.68918e-06
  0.862923 -1.364e-06
  0.902088 -1.51549e-06
  0.941253 -1.65802e-06
  0.980418 -4.00508e-07
   1.01958 6.73316e-07
   1.05875 7.79953e-07
   1.09791 1.62112e-06
   1.13708 1.94104e-06
   1.17624 2.46503e-06
   1.21541  2.636e-06
   1.25457 2.54357e-06
   1.29374 1.95281e-06
    1.3329 4.17584e-06
   1.37207 2.50156e-06
   1.41123 3.87868e-06
    1.4504 1.82715e-06
   1.48956 4.69611e-06
   1.52873 -1.59361e-06
   1.56789 7.03296e-06
   1.60706 -1.31752e-05
   1.64622 1.51107e-05
   1.68539 -1.78715e-05
   1.72107 -6.9578e-06
   1.75152 1.43939e-05
   1.77865 6.33281e-06
   1.80281 1.7691e-05
   1.82434 2.16052e-05
   1.84353 2.49673e-05
   1.86062 2.53487e-05
   1.87584 2.38897e-05
   1.88941 2.08841e-05
    1.9015 1.70959e-05
   1.91226 1.31315e-05
   1.92186 9.46455e-06
    1.9304 6.39649e-06
   1.93802 4.04791e-06
    1.9448 2.39278e-06
   1.95084 1.30593e-06
   1.95623  6.279e-07
   1.96103 2.2001e-07
    1.9653 -1.49604e-08
   1.96911 -1.3859e-07
    1.9725 -1.90401e-07
   1.97552 -1.97605e-07
   1.97822 -1.79742e-07
   1.98061 -1.50485e-07
   1.98275 -1.18661e-07
   1.98466 -8.92793e-08
   1.98635 -6.46329e-08
   1.98786 -4.53068e-08
   1.98921 -3.09301e-08
   1.99041 -2.05712e-08
   1.99148 -1.28983e-08
   1.99243 -7.11669e-09
   1.99333 -4.16994e-09
   1.99421 -3.66212e-09
    1.9951 -3.65999e-09
     1.996 -3.44193e-09
   1.99689 -3.01236e-09
   1.99777 -2.40089e-09
   1.99867 -1.5402e-09
   1.99956 -5.25869e-10
         2          0
