         0          0
  0.000445 0.00499725
  0.001335  0.0149828
  0.002225  0.0249593
  0.003115  0.0349263
  0.004005  0.0448833
  0.004895  0.0548298
  0.005785  0.0647647
  0.006675   0.074687
0.00756867  0.0846364
0.00852095  0.0952219
0.00958982    0.10708
 0.0107896   0.120358
 0.0121362   0.135214
 0.0136477    0.15182
 0.0153442   0.170359
 0.0172484   0.191019
 0.0193858    0.21399
 0.0217849   0.239449
 0.0244777   0.267551
 0.0275001   0.298402
 0.0308926    0.33204
 0.0347005   0.368405
 0.0389746   0.407308
 0.0437719   0.448415
 0.0491566   0.491234
 0.0552005   0.535133
 0.0619844   0.579374
 0.0695988   0.623171
 0.0781455   0.665765
 0.0877386   0.706483
 0.0985062   0.744799
  0.110592   0.780365
  0.124158   0.813015
  0.139384   0.842753
  0.156474   0.869739
  0.175657   0.894264
  0.197189   0.916728
  0.221357   0.937577
  0.248483    0.95729
  0.278931   0.976348
  0.314615   0.995918
   0.35378      1.015
  0.392945    1.03239
   0.43211    1.04838
  0.471275     1.0632
   0.51044    1.07701
  0.549604    1.08986
  0.588769    1.10179
  0.627934    1.11277
  0.667099    1.12284
  0.706264    1.13199
  0.745429    1.14019
  0.784593     1.1474
  0.823758    1.15356
  0.862923    1.15861
  0.902088    1.16247
  0.941253    1.16508
  0.980418    1.16637
   1.01958    1.16633
   1.05875    1.16497
   1.09791    1.16231
   1.13708     1.1584
   1.17624     1.1533
   1.21541    1.14707
   1.25457    1.13975
   1.29374    1.13142
    1.3329    1.12216
   1.37207    1.11204
   1.41123    1.10106
    1.4504    1.08919
   1.48956    1.07639
   1.52873    1.06261
   1.56789    1.04777
   1.60706    1.03174
   1.64622    1.01434
   1.68539   0.995257
   1.72107   0.975685
   1.75152   0.956651
   1.77865   0.937017
   1.80281   0.916324
   1.82434   0.894082
   1.84353   0.869811
   1.86062   0.843082
   1.87584   0.813582
   1.88941   0.781146
    1.9015   0.745767
   1.91226   0.707614
   1.92186   0.667032
    1.9304   0.624544
   1.93802   0.580814
    1.9448   0.536605
   1.95084   0.492703
   1.95623    0.44985
   1.96103   0.408685
    1.9653   0.369705
   1.96911   0.333252
    1.9725   0.299519
   1.97552   0.268572
   1.97822   0.240376
   1.98061   0.214827
   1.98275   0.191772
   1.98466   0.171034
   1.98635   0.152424
   1.98786   0.135753
   1.98921   0.120839
   1.99041   0.107509
   1.99148  0.0956035
   1.99243  0.0849759
   1.99333  0.0749867
   1.99421  0.0650245
    1.9951  0.0550497
     1.996  0.0450634
   1.99689  0.0350663
   1.99777  0.0250593
   1.99867  0.0150428
   1.99956 0.00501726
         2          0
