         0          0
  0.000445 1.45841e-06
  0.001335 4.37523e-06
  0.002225  7.292e-06
  0.003115 1.02086e-05
  0.004005 1.31247e-05
  0.004895 1.60402e-05
  0.005785 1.89546e-05
  0.006675 2.18675e-05
0.00756867 2.47905e-05
0.00852095 2.79026e-05
0.00958982 3.13917e-05
 0.0107896 3.53018e-05
 0.0121362 3.96813e-05
 0.0136477 4.45826e-05
 0.0153442 5.00619e-05
 0.0172484 5.61773e-05
 0.0193858 6.29854e-05
 0.0217849 7.05339e-05
 0.0244777 7.88481e-05
 0.0275001 8.79079e-05
 0.0308926 9.76112e-05
 0.0347005 0.000107726
 0.0389746 0.000117837
 0.0437719 0.000127297
 0.0491566 0.000135225
 0.0552005 0.000140558
 0.0619844 0.000142192
 0.0695988 0.000139221
 0.0781455 0.000131267
 0.0877386 0.000118963
 0.0985062 0.00010447
  0.110592 9.17773e-05
  0.124158 8.6799e-05
  0.139384   9.65e-05
  0.156474 0.000123775
  0.175657 0.000164032
  0.197189 0.000209461
  0.221357 0.00025488
  0.248483 0.000299806
  0.278931 0.000348946
  0.314615 0.000404584
   0.35378 0.00044732
  0.392945 0.000486881
   0.43211 0.000539064
  0.471275 0.000589823
   0.51044 0.000630546
  0.549604 0.000675751
  0.588769 0.000691084
  0.627934 0.000636801
  0.667099 0.000539432
  0.706264 0.000444758
  0.745429 0.000366836
  0.784593 0.000326486
  0.823758 0.000339823
  0.862923 0.000394067
  0.902088 0.000460642
  0.941253 0.000525467
  0.980418 0.000569825
   1.01958 0.000584678
   1.05875 0.000593212
   1.09791 0.000613116
   1.13708 0.000629494
   1.17624 0.000628118
   1.21541 0.000607232
   1.25457 0.000578418
   1.29374 0.00055985
    1.3329 0.000556075
   1.37207 0.000551655
   1.41123 0.000515754
    1.4504 0.000452155
   1.48956 0.000408847
   1.52873  0.0004139
   1.56789 0.000453499
   1.60706 0.000486641
   1.64622 0.000506787
   1.68539 0.000529412
   1.72107 0.00052465
   1.75152 0.000496642
   1.77865 0.000445832
   1.80281 0.000380026
   1.82434 0.000304301
   1.84353 0.000223529
   1.86062 0.000145876
   1.87584 7.85736e-05
   1.88941 2.5551e-05
    1.9015 -1.31953e-05
   1.91226 -4.00066e-05
   1.92186 -5.75249e-05
    1.9304 -6.77239e-05
   1.93802 -7.20999e-05
    1.9448 -7.20274e-05
   1.95084 -6.88644e-05
   1.95623 -6.38503e-05
   1.96103 -5.79823e-05
    1.9653 -5.19616e-05
   1.96911 -4.6213e-05
    1.9725 -4.09477e-05
   1.97552 -3.62357e-05
   1.97822 -3.20681e-05
   1.98061 -2.83991e-05
   1.98275 -2.51709e-05
   1.98466 -2.2327e-05
   1.98635 -1.98163e-05
   1.98786 -1.75952e-05
   1.98921 -1.56267e-05
   1.99041 -1.38793e-05
   1.99148 -1.23266e-05
   1.99243 -1.09457e-05
   1.99333 -9.65132e-06
   1.99421 -8.36335e-06
    1.9951 -7.07611e-06
     1.996 -5.78935e-06
   1.99689 -4.5028e-06
   1.99777 -3.21633e-06
   1.99867 -1.92984e-06
   1.99956 -6.43289e-07
         2          0
