         0          0
  0.000445 8.90024e-07
  0.001335 7.62287e-06
  0.002225 2.03621e-05
  0.003115 3.84487e-05
  0.004005 6.1284e-05
  0.004895 8.83236e-05
  0.005785 0.000119072
  0.006675 0.000153079
0.00756867 0.000190092
0.00852095 0.000232314
0.00958982 0.000282581
 0.0107896 0.000342004
 0.0121362 0.000411708
 0.0136477 0.000492789
 0.0153442 0.00058625
 0.0172484 0.000692939
 0.0193858 0.000813495
 0.0217849 0.000948308
 0.0244777 0.00109751
 0.0275001 0.00126105
 0.0308926 0.00143874
 0.0347005 0.00163038
 0.0389746 0.00183583
 0.0437719 0.00205492
 0.0491566  0.0022872
 0.0552005 0.00253142
 0.0619844 0.00278502
 0.0695988 0.00304359
 0.0781455 0.00330092
 0.0877386 0.00354959
 0.0985062 0.00378212
  0.110592 0.00399217
  0.124158 0.00417534
  0.139384 0.00432925
  0.156474 0.00445284
  0.175657  0.0045454
  0.197189 0.00460389
  0.221357 0.00461992
  0.248483 0.00458674
  0.278931 0.00450767
  0.314615 0.00438543
   0.35378 0.00416911
  0.392945 0.00393729
   0.43211 0.00369534
  0.471275 0.00345139
   0.51044 0.00321161
  0.549604 0.00297822
  0.588769 0.00275356
  0.627934 0.00253867
  0.667099 0.00233889
  0.706264 0.00215601
  0.745429 0.00198971
  0.784593 0.00184263
  0.823758 0.00171736
  0.862923  0.0016152
  0.902088 0.00153727
  0.941253 0.00148607
  0.980418 0.00146348
   1.01958 0.00146799
   1.05875 0.00149731
   1.09791 0.00155021
   1.13708 0.00162744
   1.17624 0.00172963
   1.21541 0.00185553
   1.25457 0.00200217
   1.29374 0.00216711
    1.3329 0.00234876
   1.37207 0.00254523
   1.41123 0.00275505
    1.4504 0.00297821
   1.48956 0.00321616
   1.52873 0.00346642
   1.56789 0.00371979
   1.60706 0.00397079
   1.64622 0.00421427
   1.68539 0.00443876
   1.72107 0.00455828
   1.75152 0.00462229
   1.77865 0.00463208
   1.80281 0.00459682
   1.82434 0.00452552
   1.84353 0.00442697
   1.86062  0.0043057
   1.87584  0.0041605
   1.88941 0.00398838
    1.9015 0.00378834
   1.91226 0.00356304
   1.92186 0.00331861
    1.9304 0.00306315
   1.93802  0.0028049
    1.9448 0.00255077
   1.95084 0.00230564
   1.95623 0.00207237
   1.96103 0.00185227
    1.9653 0.00164581
   1.96911 0.00145313
    1.9725 0.00127436
   1.97552 0.00110969
   1.97822 0.000959309
   1.98061 0.000823321
   1.98275 0.000701614
   1.98466 0.000593824
   1.98635 0.000499335
   1.98786 0.000417312
   1.98921 0.00034676
   1.99041 0.000286586
   1.99148 0.000235662
   1.99243 0.000192871
   1.99333 0.000155347
   1.99421 0.000120861
    1.9951 8.96677e-05
     1.996 6.22288e-05
   1.99689 3.90492e-05
   1.99777 2.06843e-05
   1.99867 7.74511e-06
   1.99956 9.04535e-07
         2          0
