         0          0
  0.000445 3.16969e-06
  0.001335 2.84607e-05
  0.002225 7.89325e-05
  0.003115 0.000154499
  0.004005 0.000255085
  0.004895 0.000380609
  0.005785 0.000530975
  0.006675 0.000706056
0.00756867 0.00090656
0.00852095 0.00114722
0.00958982 0.00145011
 0.0107896  0.0018306
 0.0121362 0.00230735
 0.0136477 0.00290265
 0.0153442 0.00364238
 0.0172484 0.00455554
 0.0193858 0.00567277
 0.0217849  0.0070235
 0.0244777 0.00863124
 0.0275001   0.010507
 0.0308926  0.0126407
 0.0347005  0.0149931
 0.0389746  0.0174886
 0.0437719  0.0200144
 0.0491566  0.0224266
 0.0552005  0.0245658
 0.0619844  0.0262789
 0.0695988  0.0274427
 0.0781455  0.0279827
 0.0877386  0.0278832
 0.0985062  0.0271862
  0.110592  0.0259809
  0.124158  0.0243887
  0.139384  0.0225456
  0.156474  0.0205846
  0.175657  0.0186194
  0.197189   0.016735
  0.221357  0.0149858
  0.248483   0.013396
  0.278931  0.0119715
  0.314615  0.0106823
   0.35378 0.00953301
  0.392945 0.00860534
   0.43211 0.00783073
  0.471275 0.00715375
   0.51044  0.0065419
  0.549604 0.00597814
  0.588769 0.00545879
  0.627934 0.00498029
  0.667099 0.00453905
  0.706264 0.00413157
  0.745429  0.0037556
  0.784593 0.00341415
  0.823758 0.00311212
  0.862923 0.00285701
  0.902088 0.00265662
  0.941253 0.00251728
  0.980418 0.00244768
   1.01958 0.00245269
   1.05875 0.00253196
   1.09791 0.00268279
   1.13708 0.00289955
   1.17624 0.00317305
   1.21541 0.00349555
   1.25457 0.00385824
   1.29374 0.00425467
    1.3329 0.00468173
   1.37207  0.0051357
   1.41123 0.00561752
    1.4504 0.00613262
   1.48956  0.0066829
   1.52873 0.00727556
   1.56789 0.00792886
   1.60706 0.00868151
   1.64622 0.00958738
   1.68539   0.010723
   1.72107   0.012007
   1.75152  0.0134329
   1.77865  0.0150383
   1.80281  0.0168145
   1.82434  0.0187298
   1.84353  0.0207272
   1.86062  0.0227179
   1.87584  0.0245873
   1.88941  0.0262032
    1.9015  0.0274289
   1.91226  0.0281412
   1.92186  0.0282491
    1.9304  0.0277101
   1.93802  0.0265402
    1.9448  0.0248146
   1.95084  0.0226578
   1.95623  0.0202247
   1.96103   0.017676
    1.9653   0.015157
   1.96911  0.0127816
    1.9725  0.0106262
   1.97552 0.00873088
   1.97822 0.00710577
   1.98061 0.00574005
   1.98275 0.00461012
   1.98466 0.00368637
   1.98635 0.00293794
   1.98786 0.00233556
   1.98921 0.00185308
   1.99041 0.00146799
   1.99148 0.00116141
   1.99243 0.000917802
   1.99333 0.000714834
   1.99421 0.000537591
    1.9951 0.000385363
     1.996 0.000258278
   1.99689 0.000156438
   1.99777 7.9926e-05
   1.99867  2.882e-05
   1.99956 3.20989e-06
         2          0
