         0          0
  0.000445 -9.07979e-13
  0.001335 -2.31467e-11
  0.002225 -1.05073e-10
  0.003115 -2.8638e-10
  0.004005 -6.0082e-10
  0.004895 -1.07597e-09
  0.005785 -1.73391e-09
  0.006675 -2.59102e-09
0.00756867 -3.6653e-09
0.00852095 -5.0531e-09
0.00958982 -6.92155e-09
 0.0107896 -9.42023e-09
 0.0121362 -1.2757e-08
 0.0136477 -1.7227e-08
 0.0153442 -2.32846e-08
 0.0172484 -3.16653e-08
 0.0193858 -4.35938e-08
 0.0217849 -6.10874e-08
 0.0244777 -8.73343e-08
 0.0275001 -1.27019e-07
 0.0308926 -1.86354e-07
 0.0347005 -2.72461e-07
 0.0389746 -3.91842e-07
 0.0437719 -5.47904e-07
 0.0491566 -7.38083e-07
 0.0552005 -9.51671e-07
 0.0619844 -1.16926e-06
 0.0695988 -1.36407e-06
 0.0781455 -1.50328e-06
 0.0877386 -1.54896e-06
 0.0985062 -1.47313e-06
  0.110592 -1.27647e-06
  0.124158 -9.66579e-07
  0.139384 -5.78021e-07
  0.156474 -3.25527e-07
  0.175657 -2.65633e-07
  0.197189 -3.0255e-07
  0.221357 -3.76544e-07
  0.248483 -2.5714e-07
  0.278931 -3.29833e-07
  0.314615 -5.2535e-07
   0.35378 -5.65102e-07
  0.392945 -5.00612e-07
   0.43211 -4.45603e-07
  0.471275 -6.35014e-07
   0.51044 -5.37294e-07
  0.549604 -4.49674e-07
  0.588769 -8.45415e-07
  0.627934 -1.43284e-06
  0.667099 -1.50083e-06
  0.706264 -1.45985e-06
  0.745429 -1.29341e-06
  0.784593 -9.31821e-07
  0.823758 -5.80453e-07
  0.862923 -4.15429e-07
  0.902088 -3.99386e-07
  0.941253 -3.31996e-07
  0.980418 -4.95087e-07
   1.01958 -5.84464e-07
   1.05875 -4.60249e-07
   1.09791 -3.57285e-07
   1.13708 -4.17777e-07
   1.17624 -5.51767e-07
   1.21541 -6.38265e-07
   1.25457 -4.66813e-07
   1.29374 -1.77475e-07
    1.3329 -4.85064e-09
   1.37207 -2.06011e-08
   1.41123 -4.2859e-07
    1.4504 -4.80474e-07
   1.48956 -3.41537e-08
   1.52873 4.31877e-07
   1.56789 5.94746e-07
   1.60706 3.37946e-07
   1.64622 5.13317e-07
   1.68539 3.01432e-07
   1.72107 -3.79728e-07
   1.75152 -7.62386e-07
   1.77865 -1.17808e-06
   1.80281 -1.33979e-06
   1.82434 -1.48264e-06
   1.84353 -1.62725e-06
   1.86062 -1.6599e-06
   1.87584 -1.59885e-06
   1.88941 -1.45624e-06
    1.9015 -1.26955e-06
   1.91226 -1.07597e-06
   1.92186 -8.83022e-07
    1.9304 -6.89764e-07
   1.93802 -5.00655e-07
    1.9448 -3.27131e-07
   1.95084 -1.82119e-07
   1.95623 -7.34867e-08
   1.96103 -1.76998e-09
    1.9653 3.8421e-08
   1.96911 5.54266e-08
    1.9725 5.77108e-08
   1.97552 5.21254e-08
   1.97822 4.33626e-08
   1.98061 3.41873e-08
   1.98275 2.59698e-08
   1.98466 1.92108e-08
   1.98635 1.39406e-08
   1.98786 9.97583e-09
   1.98921 7.06654e-09
   1.99041 4.9687e-09
   1.99148 3.47584e-09
   1.99243 2.42153e-09
   1.99333 1.64757e-09
   1.99421 1.06056e-09
    1.9951 6.33911e-10
     1.996 3.41458e-10
   1.99689 1.57295e-10
   1.99777 5.58042e-11
   1.99867 1.18301e-11
   1.99956 3.52886e-13
         2          0
