         0          0
  0.000445 3.2964e-09
  0.001335 2.87392e-08
  0.002225 7.78928e-08
  0.003115 1.49199e-07
  0.004005 2.4126e-07
  0.004895 3.52825e-07
  0.005785 4.82783e-07
  0.006675 6.30149e-07
0.00756867 7.94783e-07
0.00852095 9.87844e-07
0.00958982 1.2252e-06
 0.0107896 1.51667e-06
 0.0121362 1.87439e-06
 0.0136477 2.31357e-06
 0.0153442 2.85354e-06
 0.0172484 3.51903e-06
 0.0193858 4.34142e-06
 0.0217849 5.35916e-06
 0.0244777 6.61571e-06
 0.0275001 8.15249e-06
 0.0308926 9.99424e-06
 0.0347005 1.21256e-05
 0.0389746 1.44611e-05
 0.0437719 1.68162e-05
 0.0491566 1.88913e-05
 0.0552005 2.02886e-05
 0.0619844 2.05809e-05
 0.0695988 1.94388e-05
 0.0781455 1.67734e-05
 0.0877386 1.27774e-05
 0.0985062 7.86995e-06
  0.110592 2.78199e-06
  0.124158 -1.59452e-06
  0.139384 -4.81229e-06
  0.156474 -6.7997e-06
  0.175657 -7.56908e-06
  0.197189 -6.27642e-06
  0.221357 -1.41137e-06
  0.248483 8.17181e-06
  0.278931 1.40345e-05
  0.314615 9.70373e-06
   0.35378 1.85394e-06
  0.392945 -2.58304e-06
   0.43211 -6.2842e-06
  0.471275 -6.51756e-06
   0.51044 -4.75126e-06
  0.549604 -5.64041e-06
  0.588769 -5.53413e-06
  0.627934 -1.38006e-06
  0.667099 4.62643e-06
  0.706264 1.04188e-05
  0.745429 1.49644e-05
  0.784593 1.69987e-05
  0.823758 1.71538e-05
  0.862923 1.66073e-05
  0.902088 1.51155e-05
  0.941253 1.22486e-05
  0.980418 8.81242e-06
   1.01958 5.63726e-06
   1.05875 2.17453e-06
   1.09791 -1.02404e-06
   1.13708 -2.22176e-06
   1.17624 -1.05267e-06
   1.21541 4.9285e-07
   1.25457 4.46156e-07
   1.29374 3.40918e-07
    1.3329 1.33249e-06
   1.37207 2.02251e-06
   1.41123 3.45745e-06
    1.4504 6.63083e-06
   1.48956 9.74671e-06
   1.52873 1.19834e-05
   1.56789 1.34745e-05
   1.60706 1.45877e-05
   1.64622 1.46732e-05
   1.68539 7.54587e-06
   1.72107 3.0554e-06
   1.75152 4.37112e-06
   1.77865 7.1042e-06
   1.80281 9.59384e-06
   1.82434 1.15184e-05
   1.84353 1.17132e-05
   1.86062 9.6564e-06
   1.87584 6.03016e-06
   1.88941 1.53312e-06
    1.9015 -3.38925e-06
   1.91226 -8.65947e-06
   1.92186 -1.40189e-05
    1.9304 -1.88522e-05
   1.93802 -2.2477e-05
    1.9448 -2.44603e-05
   1.95084 -2.47434e-05
   1.95623 -2.35897e-05
   1.96103 -2.14434e-05
    1.9653 -1.87778e-05
   1.96911 -1.59848e-05
    1.9725 -1.33292e-05
   1.97552 -1.09538e-05
   1.97822 -8.91163e-06
   1.98061 -7.20075e-06
   1.98275 -5.79108e-06
   1.98466 -4.64201e-06
   1.98635 -3.71186e-06
   1.98786 -2.96239e-06
   1.98921 -2.36042e-06
   1.99041 -1.87804e-06
   1.99148 -1.4922e-06
   1.99243 -1.18405e-06
   1.99333 -9.25948e-07
   1.99421 -6.9929e-07
    1.9951 -5.03442e-07
     1.996 -3.389e-07
   1.99689 -2.06178e-07
   1.99777 -1.05801e-07
   1.99867 -3.83182e-08
   1.99956 -4.28963e-09
         2          0
