         0          0
  0.000445 4.25558e-12
  0.001335  6.837e-10
  0.002225 5.28991e-09
  0.003115 2.00436e-08
  0.004005 5.32232e-08
  0.004895 1.14635e-07
  0.005785 2.15291e-07
  0.006675 3.67038e-07
0.00756867 5.83226e-07
0.00852095 8.97583e-07
0.00958982 1.3731e-06
 0.0107896 2.08718e-06
 0.0121362 3.15111e-06
 0.0136477 4.72286e-06
 0.0153442 7.02374e-06
 0.0172484 1.03591e-05
 0.0193858 1.51434e-05
 0.0217849 2.19297e-05
 0.0244777 3.14425e-05
 0.0275001 4.46126e-05
 0.0308926 6.26122e-05
 0.0347005 8.68884e-05
 0.0389746 0.000119191
 0.0437719 0.000161591
 0.0491566 0.000216478
 0.0552005 0.000286517
 0.0619844 0.000374546
 0.0695988 0.000483363
 0.0781455 0.000615397
 0.0877386 0.000772263
 0.0985062 0.000954247
  0.110592 0.00115979
  0.124158 0.00138502
  0.139384 0.00162346
  0.156474 0.00186604
  0.175657 0.00210149
  0.197189 0.00231671
  0.221357  0.0024987
  0.248483 0.00263709
  0.278931 0.00272294
  0.314615 0.00274726
   0.35378 0.00270142
  0.392945 0.00261827
   0.43211   0.002518
  0.471275 0.00240933
   0.51044 0.00229815
  0.549604 0.00218906
  0.588769  0.0020836
  0.627934 0.00198312
  0.667099 0.00188899
  0.706264 0.00180196
  0.745429 0.00172266
  0.784593 0.00165257
  0.823758 0.00159269
  0.862923 0.00154418
  0.902088  0.0015077
  0.941253 0.00148378
  0.980418 0.00147202
   1.01958 0.00147202
   1.05875 0.00148376
   1.09791 0.00150729
   1.13708 0.00154244
   1.17624 0.00158917
   1.21541 0.00164709
   1.25457 0.00171627
   1.29374  0.0017956
    1.3329 0.00188382
   1.37207 0.00197953
   1.41123 0.00208257
    1.4504 0.00219059
   1.48956 0.00230258
   1.52873 0.00241506
   1.56789 0.00252571
   1.60706 0.00262691
   1.64622 0.00271106
   1.68539 0.00275828
   1.72107  0.0027369
   1.75152 0.00265263
   1.77865 0.00251532
   1.80281 0.00233282
   1.82434 0.00211675
   1.84353 0.00188021
   1.86062 0.00163648
   1.87584 0.00139689
   1.88941  0.0011705
    1.9015 0.000963791
   1.91226 0.000780656
   1.92186 0.000622679
    1.9304 0.00048958
   1.93802 0.000379758
    1.9448 0.000290806
   1.95084 0.000219943
   1.95623 0.000164343
   1.96103 0.00012134
    1.9653 8.85371e-05
   1.96911 6.38564e-05
    1.9725 4.55363e-05
   1.97552 3.21176e-05
   1.97822 2.24158e-05
   1.98061 1.54886e-05
   1.98275 1.06011e-05
   1.98466 7.19141e-06
   1.98635 4.83776e-06
   1.98786 3.22905e-06
   1.98921 2.13957e-06
   1.99041 1.40802e-06
   1.99148 9.2067e-07
   1.99243 5.98383e-07
   1.99333 3.76669e-07
   1.99421 2.20994e-07
    1.9951  1.177e-07
     1.996  5.466e-08
   1.99689 2.05901e-08
   1.99777 5.43574e-09
   1.99867 7.0283e-10
   1.99956 4.38193e-12
         2          0
