         0   -11.2298
  0.000445   -11.2248
  0.001335   -11.2146
  0.002225   -11.2042
  0.003115   -11.1933
  0.004005   -11.1817
  0.004895   -11.1693
  0.005785   -11.1558
  0.006675   -11.1409
0.00756867   -11.1245
0.00852095   -11.1051
0.00958982   -11.0807
 0.0107896   -11.0495
 0.0121362   -11.0094
 0.0136477   -10.9571
 0.0153442   -10.8885
 0.0172484   -10.7984
 0.0193858   -10.6797
 0.0217849    -10.524
 0.0244777   -10.3216
 0.0275001   -10.0614
 0.0308926   -9.73271
 0.0347005   -9.32604
 0.0389746   -8.83539
 0.0437719   -8.26031
 0.0491566   -7.60767
 0.0552005   -6.89239
 0.0619844   -6.13671
 0.0695988   -5.36777
 0.0781455   -4.61405
 0.0877386   -3.90153
 0.0985062   -3.25066
  0.110592   -2.67478
  0.124158   -2.17992
  0.139384   -1.76603
  0.156474   -1.42875
  0.175657    -1.1609
  0.197189  -0.952998
  0.221357  -0.794703
  0.248483  -0.676309
  0.278931   -0.58717
  0.314615  -0.517849
   0.35378  -0.465673
  0.392945  -0.426173
   0.43211  -0.393318
  0.471275  -0.365469
   0.51044  -0.340382
  0.549604  -0.316277
  0.588769  -0.292462
  0.627934  -0.268762
  0.667099  -0.245286
  0.706264  -0.221559
  0.745429  -0.196769
  0.784593  -0.170652
  0.823758  -0.143123
  0.862923  -0.113795
  0.902088 -0.0825377
  0.941253 -0.0497564
  0.980418 -0.0160653
   1.01958  0.0178793
   1.05875  0.0513833
   1.09791  0.0838526
   1.13708   0.114992
   1.17624   0.144709
   1.21541   0.172962
   1.25457   0.199743
   1.29374    0.22465
    1.3329   0.247468
   1.37207   0.269367
   1.41123   0.291659
    1.4504   0.314886
   1.48956   0.339375
   1.52873   0.365415
   1.56789    0.39408
   1.60706   0.426822
   1.64622   0.465741
   1.68539   0.517812
   1.72107    0.58682
   1.75152   0.674464
   1.77865   0.789998
   1.80281   0.944609
   1.82434    1.14915
   1.84353    1.41463
   1.86062    1.75069
   1.87584    2.16427
   1.88941    2.65921
    1.9015    3.23536
   1.91226    3.88687
   1.92186    4.60088
    1.9304     5.3572
   1.93802    6.12992
    1.9448     6.8904
   1.95084     7.6112
   1.95623    8.26971
   1.96103    8.85063
    1.9653     9.3468
   1.96911    9.75843
    1.9725    10.0914
   1.97552    10.3551
   1.97822    10.5604
   1.98061    10.7183
   1.98275    10.8387
   1.98466    10.9302
   1.98635    10.9996
   1.98786    11.0526
   1.98921    11.0933
   1.99041    11.1248
   1.99148    11.1495
   1.99243    11.1691
   1.99333    11.1856
   1.99421    11.2005
    1.9951    11.2141
     1.996    11.2266
   1.99689    11.2382
   1.99777    11.2492
   1.99867    11.2596
   1.99956    11.2697
         2    11.2747
