         0    16.0065
  0.000445    15.9779
  0.001335    15.9313
  0.002225    15.8964
  0.003115    15.8698
  0.004005    15.8481
  0.004895    15.8283
  0.005785    15.8076
  0.006675    15.7835
0.00756867    15.7535
0.00852095    15.7119
0.00958982    15.6513
 0.0107896    15.5623
 0.0121362    15.4324
 0.0136477    15.2459
 0.0153442    14.9837
 0.0172484    14.6258
 0.0193858    14.1542
 0.0217849    13.5579
 0.0244777    12.8402
 0.0275001    12.0235
 0.0308926    11.1521
 0.0347005    10.2871
 0.0389746    9.49386
 0.0437719    8.82355
 0.0491566    8.29643
 0.0552005    7.89473
 0.0619844    7.56999
 0.0695988    7.26159
 0.0781455    6.91712
 0.0877386    6.50526
 0.0985062    6.01847
  0.110592    5.46824
  0.124158    4.87614
  0.139384    4.26735
  0.156474    3.66977
  0.175657    3.10907
  0.197189    2.59959
  0.221357    2.15067
  0.248483    1.77214
  0.278931    1.43973
  0.314615    1.14549
   0.35378   0.952418
  0.392945    0.81444
   0.43211   0.705049
  0.471275   0.618067
   0.51044   0.546024
  0.549604   0.486665
  0.588769     0.4368
  0.627934   0.394084
  0.667099   0.357968
  0.706264   0.327509
  0.745429   0.301877
  0.784593   0.281104
  0.823758   0.265484
  0.862923   0.253932
  0.902088   0.245716
  0.941253   0.240891
  0.980418   0.238328
   1.01958   0.238021
   1.05875   0.240586
   1.09791    0.24585
   1.13708    0.25406
   1.17624   0.266048
   1.21541   0.281567
   1.25457   0.301756
   1.29374   0.327114
    1.3329   0.356755
   1.37207   0.392567
   1.41123   0.436612
    1.4504   0.488608
   1.48956   0.550591
   1.52873   0.624242
   1.56789   0.712478
   1.60706   0.818931
   1.64622   0.953343
   1.68539    1.14816
   1.72107    1.44726
   1.75152    1.78241
   1.77865    2.16008
   1.80281    2.60748
   1.82434    3.11689
   1.84353    3.67394
   1.86062    4.26391
   1.87584    4.86485
   1.88941    5.44959
    1.9015    5.99275
   1.91226    6.47458
   1.92186    6.88663
    1.9304    7.23795
   1.93802    7.55971
    1.9448    7.90288
   1.95084    8.32589
   1.95623    8.87497
   1.96103    9.56626
    1.9653    10.3787
   1.96911    11.2609
    1.9725    12.1478
   1.97552    12.9783
   1.97822    13.7082
   1.98061    14.3148
   1.98275    14.7951
   1.98466    15.1599
   1.98635    15.4274
   1.98786     15.618
   1.98921    15.7508
   1.99041     15.842
   1.99148    15.9041
   1.99243    15.9469
   1.99333    15.9778
   1.99421    16.0027
    1.9951    16.0242
     1.996    16.0448
   1.99689    16.0675
   1.99777    16.0953
   1.99867    16.1315
   1.99956    16.1799
         2    16.2095
