         0 -0.0132779
  0.000445 -0.0133404
  0.001335 -0.0403483
  0.002225 -0.0674807
  0.003115 -0.0943723
  0.004005  -0.120672
  0.004895  -0.146047
  0.005785  -0.170185
  0.006675    -0.1928
0.00756867  -0.213712
0.00852095  -0.233716
0.00958982  -0.253131
 0.0107896  -0.270763
 0.0121362  -0.284957
 0.0136477   -0.29352
 0.0153442  -0.293664
 0.0172484  -0.282025
 0.0193858  -0.254786
 0.0217849  -0.207967
 0.0244777  -0.137909
 0.0275001 -0.0419488
 0.0308926  0.0807679
 0.0347005    0.22851
 0.0389746   0.396437
 0.0437719   0.576585
 0.0491566   0.758553
 0.0552005   0.930866
 0.0619844    1.08276
 0.0695988    1.20585
 0.0781455    1.29523
 0.0877386    1.34954
 0.0985062    1.37023
  0.110592    1.36063
  0.124158    1.32495
  0.139384    1.26738
  0.156474    1.19162
  0.175657    1.10108
  0.197189   0.999542
  0.221357   0.891411
  0.248483   0.781201
  0.278931   0.674025
  0.314615   0.569212
   0.35378   0.481409
  0.392945   0.412238
   0.43211    0.35681
  0.471275   0.310746
   0.51044    0.27128
  0.549604    0.23663
  0.588769   0.205677
  0.627934   0.177904
  0.667099   0.152948
  0.706264   0.130266
  0.745429   0.109378
  0.784593  0.0899735
  0.823758  0.0718039
  0.862923  0.0546048
  0.902088  0.0381245
  0.941253  0.0222149
  0.980418 0.00676535
   1.01958 -0.00848813
   1.05875 -0.0238374
   1.09791 -0.0395747
   1.13708 -0.0559427
   1.17624  -0.073128
   1.21541 -0.0912952
   1.25457   -0.11074
   1.29374  -0.131665
    1.3329  -0.154189
   1.37207   -0.17864
   1.41123  -0.205632
    1.4504  -0.235896
   1.48956  -0.270314
   1.52873  -0.310161
   1.56789  -0.357157
   1.60706  -0.413262
   1.64622  -0.482606
   1.68539  -0.570887
   1.72107  -0.676938
   1.75152  -0.785399
   1.77865  -0.896516
   1.80281   -1.00572
   1.82434   -1.10859
   1.84353   -1.20051
   1.86062   -1.27726
   1.87584    -1.3355
   1.88941   -1.37189
    1.9015   -1.38261
   1.91226   -1.36345
   1.92186   -1.31076
    1.9304   -1.22265
   1.93802   -1.10019
    1.9448  -0.948127
   1.95084  -0.774764
   1.95623  -0.590944
   1.96103  -0.408327
    1.9653  -0.237572
   1.96911 -0.0869086
    1.9725  0.0385888
   1.97552   0.137019
   1.97822   0.209138
   1.98061   0.257569
   1.98275   0.285983
   1.98466   0.298404
   1.98635   0.298711
   1.98786   0.290335
   1.98921   0.276127
   1.99041    0.25834
   1.99148   0.238671
   1.99243   0.218353
   1.99333   0.197076
   1.99421   0.174032
    1.9951   0.149406
     1.996   0.123493
   1.99689  0.0966123
   1.99777  0.0691052
   1.99867  0.0413325
   1.99956  0.0136699
         2  0.0136078
