         0    4.49437
  0.000445    4.33022
  0.001335    4.02208
  0.002225    3.73937
  0.003115    3.47915
  0.004005    3.23907
  0.004895     3.0172
  0.005785    2.81193
  0.006675    2.62194
0.00756867     2.4455
0.00852095    2.27251
0.00958982    2.09571
 0.0107896    1.91773
 0.0121362    1.74205
 0.0136477    1.57312
 0.0153442    1.41646
 0.0172484    1.27849
 0.0193858    1.16627
 0.0217849    1.08686
 0.0244777    1.04641
 0.0275001    1.04907
 0.0308926    1.09589
 0.0347005     1.1841
 0.0389746    1.30702
 0.0437719    1.45467
 0.0491566    1.61515
 0.0552005    1.77633
 0.0619844    1.92743
 0.0695988    2.06011
 0.0781455    2.16863
 0.0877386    2.24929
 0.0985062     2.2996
  0.110592    2.31815
  0.124158    2.30436
  0.139384    2.25821
  0.156474     2.1802
  0.175657    2.07023
  0.197189    1.93055
  0.221357    1.76957
  0.248483    1.59601
  0.278931    1.40326
  0.314615     1.1973
   0.35378    1.02747
  0.392945   0.888354
   0.43211   0.771883
  0.471275   0.673309
   0.51044   0.589306
  0.549604   0.517326
  0.588769   0.454386
  0.627934   0.399662
  0.667099    0.35158
  0.706264   0.309585
  0.745429   0.273692
  0.784593   0.243227
  0.823758   0.217414
  0.862923   0.196462
  0.902088    0.18098
  0.941253   0.170986
  0.980418   0.166232
   1.01958   0.166582
   1.05875   0.171873
   1.09791   0.182522
   1.13708   0.198412
   1.17624   0.219265
   1.21541   0.245128
   1.25457   0.276319
   1.29374   0.312697
    1.3329   0.353963
   1.37207   0.400907
   1.41123    0.45521
    1.4504   0.518075
   1.48956   0.590915
   1.52873   0.675148
   1.56789   0.774167
   1.60706   0.892447
   1.64622    1.03374
   1.68539     1.2067
   1.72107    1.41456
   1.75152     1.6088
   1.77865    1.78586
   1.80281    1.94607
   1.82434     2.0831
   1.84353     2.1931
   1.86062    2.27208
   1.87584     2.3191
   1.88941    2.33496
    1.9015    2.32041
   1.91226    2.27577
   1.92186    2.20111
    1.9304    2.09741
   1.93802    1.96762
    1.9448    1.81729
   1.95084    1.65486
   1.95623    1.49142
   1.96103    1.33959
    1.9653    1.21194
   1.96911    1.11908
    1.9725    1.06823
   1.97552    1.06249
   1.97822    1.10096
   1.98061    1.17953
   1.98275    1.29196
   1.98466    1.43105
   1.98635    1.58956
   1.98786     1.7609
   1.98921    1.93938
   1.99041    2.12041
   1.99148     2.3004
   1.99243    2.47661
   1.99333    2.65644
   1.99421    2.85015
    1.9951    3.05952
     1.996    3.28588
   1.99689     3.5309
   1.99777    3.79654
   1.99867    4.08521
   1.99956    4.39995
         2    4.56765
