         0   -11.4798
  0.000445   -11.4747
  0.001335   -11.4644
  0.002225   -11.4539
  0.003115   -11.4429
  0.004005   -11.4312
  0.004895   -11.4185
  0.005785   -11.4047
  0.006675   -11.3894
0.00756867   -11.3723
0.00852095   -11.3519
0.00958982    -11.326
 0.0107896   -11.2927
 0.0121362   -11.2493
 0.0136477   -11.1924
 0.0153442   -11.1173
 0.0172484   -11.0179
 0.0193858   -10.8864
 0.0217849   -10.7138
 0.0244777   -10.4895
 0.0275001   -10.2022
 0.0308926   -9.84169
 0.0347005   -9.40003
 0.0389746   -8.87389
 0.0437719   -8.26613
 0.0491566    -7.5867
 0.0552005   -6.85223
 0.0619844   -6.08471
 0.0695988   -5.30939
 0.0781455   -4.55192
 0.0877386   -3.83602
 0.0985062   -3.18293
  0.110592   -2.60799
  0.124158   -2.11388
  0.139384   -1.69621
  0.156474   -1.35288
  0.175657   -1.07706
  0.197189  -0.866182
  0.221357  -0.724163
  0.248483  -0.632238
  0.278931  -0.573965
  0.314615  -0.525294
   0.35378  -0.471529
  0.392945  -0.433974
   0.43211  -0.419022
  0.471275  -0.409787
   0.51044  -0.378633
  0.549604  -0.333774
  0.588769  -0.301659
  0.627934  -0.276644
  0.667099   -0.24098
  0.706264  -0.197699
  0.745429  -0.166818
  0.784593  -0.151864
  0.823758  -0.141661
  0.862923  -0.130423
  0.902088  -0.120435
  0.941253  -0.108362
  0.980418 -0.0864688
   1.01958 -0.0568973
   1.05875 -0.0208242
   1.09791  0.0224554
   1.13708  0.0630532
   1.17624  0.0994575
   1.21541   0.151889
   1.25457   0.232794
   1.29374   0.317433
    1.3329   0.360425
   1.37207   0.356585
   1.41123   0.355384
    1.4504   0.374549
   1.48956   0.380366
   1.52873   0.377266
   1.56789   0.400131
   1.60706   0.445955
   1.64622   0.477106
   1.68539   0.514782
   1.72107   0.606818
   1.75152   0.721885
   1.77865   0.831918
   1.80281   0.955094
   1.82434    1.11411
   1.84353    1.33581
   1.86062    1.64649
   1.87584    2.04772
   1.88941    2.52288
    1.9015    3.07123
   1.91226     3.7055
   1.92186    4.42615
    1.9304    5.21235
   1.93802    6.02931
    1.9448    6.83876
   1.95084    7.60661
   1.95623    8.30689
   1.96103    8.92309
    1.9653    9.44789
   1.96911    9.88195
    1.9725    10.2319
   1.97552    10.5079
   1.97822     10.722
   1.98061     10.886
   1.98275    11.0105
   1.98466    11.1047
   1.98635    11.1759
   1.98786    11.2301
   1.98921    11.2715
   1.99041    11.3036
   1.99148    11.3286
   1.99243    11.3484
   1.99333    11.3652
   1.99421    11.3802
    1.9951     11.394
     1.996    11.4066
   1.99689    11.4183
   1.99777    11.4293
   1.99867    11.4399
   1.99956    11.4502
         2    11.4553
