         0 -7.98799e-06
  0.000445 -7.73329e-06
  0.001335 -2.18375e-05
  0.002225 -3.5219e-05
  0.003115 -4.91512e-05
  0.004005 -6.48936e-05
  0.004895 -8.36398e-05
  0.005785 -0.000106549
  0.006675 -0.000134729
0.00756867 -0.00016935
0.00852095 -0.000214526
0.00958982 -0.000276351
 0.0107896 -0.000361154
 0.0121362 -0.000477256
 0.0136477 -0.000635185
 0.0153442 -0.00084775
 0.0172484 -0.00112955
 0.0193858 -0.00149595
 0.0217849 -0.0019612
 0.0244777 -0.00253615
 0.0275001 -0.00322593
 0.0308926 -0.00402868
 0.0347005 -0.00493601
 0.0389746 -0.00593445
 0.0437719 -0.00700434
 0.0491566 -0.00811081
 0.0552005 -0.00918706
 0.0619844  -0.010117
 0.0695988 -0.0107258
 0.0781455 -0.0107991
 0.0877386 -0.0101631
 0.0985062 -0.00874344
  0.110592 -0.00654002
  0.124158 -0.00375565
  0.139384 -0.00100833
  0.156474 0.000949077
  0.175657 0.00167724
  0.197189  0.0015051
  0.221357 0.000863709
  0.248483 0.000311098
  0.278931 0.000590245
  0.314615 0.00149238
   0.35378 0.00166021
  0.392945 0.00122059
   0.43211 0.000487273
  0.471275 -0.000433757
   0.51044 -0.00104667
  0.549604 -0.00142097
  0.588769 -0.00173935
  0.627934 -0.00183287
  0.667099 -0.00181608
  0.706264 -0.00164163
  0.745429 -0.00122031
  0.784593 -0.000757887
  0.823758 -0.000425307
  0.862923 -0.000240962
  0.902088 -0.00010854
  0.941253 -3.12256e-05
  0.980418 1.39349e-05
   1.01958 7.67739e-05
   1.05875 0.000192294
   1.09791 0.000292139
   1.13708 0.000269614
   1.17624 8.62956e-05
   1.21541 -8.10134e-05
   1.25457 -0.000117439
   1.29374 -4.89396e-05
    1.3329 -7.95652e-06
   1.37207 -6.13863e-05
   1.41123 -0.000208606
    1.4504 -0.000268582
   1.48956 5.57958e-05
   1.52873 0.000620529
   1.56789 0.000945939
   1.60706 0.000669163
   1.64622 -0.000793237
   1.68539 -0.00273866
   1.72107 -0.0044467
   1.75152 -0.00642345
   1.77865 -0.00855414
   1.80281 -0.0104777
   1.82434 -0.0122324
   1.84353 -0.0141575
   1.86062 -0.0163966
   1.87584 -0.0184965
   1.88941 -0.0198896
    1.9015 -0.0202369
   1.91226 -0.0194047
   1.92186 -0.0174786
    1.9304 -0.0147831
   1.93802 -0.0117697
    1.9448 -0.00884988
   1.95084 -0.00629902
   1.95623 -0.00424859
   1.96103 -0.00271867
    1.9653 -0.00165465
   1.96911 -0.000961889
    1.9725 -0.000536635
   1.97552 -0.00028779
   1.97822 -0.00014678
   1.98061 -6.77952e-05
   1.98275 -2.3027e-05
   1.98466 3.15877e-06
   1.98635 1.90606e-05
   1.98786 2.89296e-05
   1.98921 3.49721e-05
   1.99041 3.83816e-05
   1.99148 3.98987e-05
   1.99243 4.00371e-05
   1.99333 3.90983e-05
   1.99421 3.71132e-05
    1.9951 3.40688e-05
     1.996 2.99851e-05
   1.99689 2.48947e-05
   1.99777 1.88439e-05
   1.99867 1.19038e-05
   1.99956 4.1522e-06
         2 4.2419e-06
