         0 -0.0100039
  0.000445 -0.00999785
  0.001335 -0.00997502
  0.002225 -0.00993347
  0.003115 -0.00987709
  0.004005 -0.00980947
  0.004895 -0.00973279
  0.005785 -0.0096487
  0.006675 -0.0095578
0.00756867 -0.00945947
0.00852095 -0.00934639
0.00958982 -0.00920771
 0.0107896 -0.00903492
 0.0121362 -0.00881593
 0.0136477 -0.00853616
 0.0153442 -0.00818158
 0.0172484 -0.00774703
 0.0193858 -0.00725196
 0.0217849 -0.00676567
 0.0244777 -0.0064377
 0.0275001 -0.00651985
 0.0308926 -0.00735123
 0.0347005 -0.00927162
 0.0389746 -0.0124407
 0.0437719 -0.0165931
 0.0491566 -0.0208309
 0.0552005 -0.0236063
 0.0619844 -0.0230592
 0.0695988 -0.0177795
 0.0781455 -0.00778112
 0.0877386 0.00484736
 0.0985062  0.0168447
  0.110592  0.0267304
  0.124158  0.0373121
  0.139384  0.0494539
  0.156474  0.0580214
  0.175657  0.0593915
  0.197189  0.0486466
  0.221357  0.0272434
  0.248483 0.00207758
  0.278931 -0.0289836
  0.314615 -0.0603253
   0.35378 -0.0672368
  0.392945 -0.0363424
   0.43211 -0.00115805
  0.471275 0.00719231
   0.51044 0.00952697
  0.549604  0.0157765
  0.588769  0.0182112
  0.627934  0.0173226
  0.667099 0.00725959
  0.706264 -0.00207315
  0.745429 -0.00134159
  0.784593 -0.00183184
  0.823758 -0.00939584
  0.862923 -0.0128139
  0.902088 -0.0048672
  0.941253 0.00366954
  0.980418 0.00220629
   1.01958 -0.00585359
   1.05875 -0.00916316
   1.09791 -0.00526738
   1.13708 -0.00149771
   1.17624 0.000850902
   1.21541  0.0035281
   1.25457 0.00516905
   1.29374 0.00395462
    1.3329 -0.00288756
   1.37207 -0.00787899
   1.41123 -0.00464578
    1.4504 -0.00350923
   1.48956 -0.00202536
   1.52873 0.00394094
   1.56789  0.0105468
   1.60706  0.0237812
   1.64622  0.0302243
   1.68539  0.0239299
   1.72107  0.0241259
   1.75152  0.0259128
   1.77865   0.027217
   1.80281  0.0331331
   1.82434  0.0275153
   1.84353 0.00695082
   1.86062 -0.0147508
   1.87584 -0.0314812
   1.88941 -0.0456838
    1.9015 -0.0598976
   1.91226 -0.0726909
   1.92186 -0.0805487
    1.9304 -0.0813517
   1.93802 -0.0753202
    1.9448 -0.0645245
   1.95084 -0.0516732
   1.95623  -0.039006
   1.96103 -0.0278418
    1.9653 -0.0186599
   1.96911 -0.0114069
    1.9725 -0.0057935
   1.97552 -0.00148802
   1.97822 0.00180079
   1.98061 0.00430641
   1.98275 0.00621137
   1.98466 0.00765798
   1.98635 0.00875666
   1.98786 0.00959239
   1.98921  0.0102298
   1.99041  0.0107175
   1.99148  0.0110921
   1.99243   0.011381
   1.99333  0.0116145
   1.99421  0.0118136
    1.9951  0.0119807
     1.996   0.012117
   1.99689  0.0122239
   1.99777  0.0123023
   1.99867  0.0123536
   1.99956  0.0123786
         2  0.0123848
