         0 0.00327732
  0.000445 0.00327732
  0.001335  0.0032773
  0.002225 0.00327716
  0.003115 0.00327683
  0.004005  0.0032762
  0.004895  0.0032752
  0.005785 0.00327376
  0.006675 0.00327185
0.00756867  0.0032694
0.00852095 0.00326616
0.00958982 0.00326172
 0.0107896 0.00325568
 0.0121362 0.00324746
 0.0136477 0.00323621
 0.0153442 0.00322058
 0.0172484 0.00319835
 0.0193858 0.00316583
 0.0217849 0.00311702
 0.0244777 0.00304254
 0.0275001 0.00292884
 0.0308926 0.00275828
 0.0347005 0.00251093
 0.0389746 0.00216878
 0.0437719 0.00172219
 0.0491566 0.00117731
 0.0552005 0.000561596
 0.0619844 -7.46571e-05
 0.0695988 -0.000660406
 0.0781455 -0.00110661
 0.0877386 -0.00131432
 0.0985062 -0.00119808
  0.110592 -0.000708582
  0.124158 0.000135067
  0.139384 0.00111651
  0.156474 0.00184726
  0.175657 0.00210422
  0.197189  0.0019946
  0.221357 0.00176776
  0.248483 0.00163503
  0.278931 0.00158653
  0.314615 0.00132519
   0.35378 0.00105065
  0.392945 0.00117124
   0.43211 0.00131422
  0.471275 0.00116792
   0.51044 0.00109701
  0.549604 0.000772854
  0.588769 -0.000497259
  0.627934 -0.00193607
  0.667099 -0.00245173
  0.706264 -0.00220345
  0.745429 -0.00150993
  0.784593 -0.000344868
  0.823758 0.000862779
  0.862923 0.00154245
  0.902088 0.00167753
  0.941253 0.00139389
  0.980418 0.000755915
   1.01958 0.000298577
   1.05875 0.000363056
   1.09791 0.000463185
   1.13708 0.000191523
   1.17624 -0.000284207
   1.21541 -0.000634496
   1.25457 -0.000604898
   1.29374 -0.000285238
    1.3329 -0.000104627
   1.37207 -0.000514763
   1.41123 -0.00127026
    1.4504 -0.00136483
   1.48956 -0.000488379
   1.52873 0.000570052
   1.56789 0.000928648
   1.60706  0.0006803
   1.64622 0.000546035
   1.68539 0.00022212
   1.72107 -0.00052667
   1.75152 -0.00139648
   1.77865  -0.002298
   1.80281 -0.00311994
   1.82434 -0.0038638
   1.84353 -0.00437715
   1.86062 -0.00448191
   1.87584 -0.00416442
   1.88941 -0.00355731
    1.9015  -0.002848
   1.91226 -0.0021581
   1.92186 -0.00150975
    1.9304 -0.000884022
   1.93802 -0.000282012
    1.9448 0.000267012
   1.95084 0.000727267
   1.95623 0.00107719
   1.96103 0.00131594
    1.9653 0.00145919
   1.96911 0.00153089
    1.9725 0.00155555
   1.97552 0.00155336
   1.97822 0.00153856
   1.98061 0.00151987
   1.98275 0.00150192
   1.98466  0.0014867
   1.98635 0.00147471
   1.98786 0.00146571
   1.98921 0.00145919
   1.99041 0.00145459
   1.99148 0.00145141
   1.99243 0.00144927
   1.99333 0.00144778
   1.99421 0.00144674
    1.9951 0.00144607
     1.996 0.00144568
   1.99689 0.00144551
   1.99777 0.00144549
   1.99867 0.00144553
   1.99956 0.00144558
         2 0.00144559
