         0 0.000521847
  0.000445 0.000521847
  0.001335 0.00469767
  0.002225   0.013054
  0.003115  0.0255977
  0.004005  0.0423349
  0.004895  0.0632681
  0.005785  0.0883943
  0.006675   0.117702
0.00756867   0.151316
0.00852095   0.191714
0.00958982   0.242611
 0.0107896   0.306597
 0.0121362   0.386798
 0.0136477   0.486909
 0.0153442   0.611163
 0.0172484     0.7642
 0.0193858   0.950762
 0.0217849    1.17516
 0.0244777    1.44046
 0.0275001    1.74741
 0.0308926    2.09322
 0.0347005    2.47036
 0.0389746    2.86593
 0.0437719    3.26178
 0.0491566     3.6358
 0.0552005    3.96438
 0.0619844    4.22561
 0.0695988    4.40235
 0.0781455    4.48455
 0.0877386    4.46996
 0.0985062    4.36336
  0.110592    4.17491
  0.124158    3.91857
  0.139384     3.6108
  0.156474    3.26912
  0.175657    2.91093
  0.197189    2.55281
  0.221357    2.20937
  0.248483    1.89227
  0.278931    1.60416
  0.314615    1.34417
   0.35378    1.12017
  0.392945   0.951639
   0.43211   0.819486
  0.471275   0.712694
   0.51044   0.623609
  0.549604   0.547708
  0.588769   0.482371
  0.627934   0.425859
  0.667099   0.376949
  0.706264   0.334681
  0.745429    0.29829
  0.784593   0.267506
  0.823758   0.241986
  0.862923   0.221517
  0.902088   0.206109
  0.941253   0.195895
  0.980418   0.190891
   1.01958   0.191088
   1.05875   0.196409
   1.09791   0.206737
   1.13708   0.221953
   1.17624   0.242079
   1.21541    0.26736
   1.25457   0.297978
   1.29374   0.334263
    1.3329    0.37642
   1.37207   0.424933
   1.41123   0.481288
    1.4504   0.547068
   1.48956   0.623944
   1.52873    0.71462
   1.56789   0.823554
   1.60706   0.957179
   1.64622    1.12555
   1.68539     1.3499
   1.72107      1.612
   1.75152    1.90354
   1.77865    2.22479
   1.80281    2.57234
   1.82434    2.93363
   1.84353    3.29402
   1.86062    3.63707
   1.87584    3.94572
   1.88941    4.20291
    1.9015    4.39259
   1.91226    4.50072
   1.92186    4.51692
    1.9304    4.43619
   1.93802    4.26058
    1.9448     3.9999
   1.95084    3.67107
   1.95623    3.29593
   1.96103    2.89814
    1.9653    2.49995
   1.96911    2.11973
    1.9725    1.77064
   1.97552    1.46039
   1.97822    1.19196
   1.98061   0.964716
   1.98275   0.775647
   1.98466   0.620461
   1.98635   0.494403
   1.98786   0.392804
   1.98921   0.311387
   1.99041   0.246419
   1.99148   0.194733
   1.99243   0.153705
   1.99333   0.119564
   1.99421  0.0897942
    1.9951  0.0642709
     1.996  0.0430062
   1.99689  0.0260038
   1.99777  0.0132611
   1.99867  0.0047722
   1.99956 0.000530126
         2 0.000530126
