         0 -0.0166462
  0.000445 -0.0162525
  0.001335 -0.0155193
  0.002225  -0.014853
  0.003115 -0.0142459
  0.004005 -0.0136916
  0.004895 -0.0131853
  0.005785 -0.0127233
  0.006675 -0.0123026
0.00756867 -0.0119203
0.00852095 -0.0115567
0.00958982 -0.0112013
 0.0107896 -0.0108672
 0.0121362 -0.0105713
 0.0136477 -0.0103325
 0.0153442 -0.0101668
 0.0172484 -0.0100803
 0.0193858  -0.010058
 0.0217849 -0.0100563
 0.0244777  -0.010006
 0.0275001 -0.00983359
 0.0308926 -0.00949543
 0.0347005 -0.00900877
 0.0389746 -0.00845755
 0.0437719 -0.0079724
 0.0491566 -0.00770037
 0.0552005 -0.00776614
 0.0619844 -0.00818614
 0.0695988 -0.00871199
 0.0781455 -0.00875669
 0.0877386 -0.00788673
 0.0985062 -0.00640906
  0.110592 -0.00451598
  0.124158 -0.00228303
  0.139384 -0.000721677
  0.156474 -0.000548865
  0.175657 -0.00193668
  0.197189 -0.00428354
  0.221357 -0.00597566
  0.248483 -0.00394358
  0.278931 -0.00154373
  0.314615 -0.000340286
   0.35378 0.000358069
  0.392945 0.000960244
   0.43211 0.000661144
  0.471275 0.000622522
   0.51044 0.00015019
  0.549604 -0.00115992
  0.588769 -0.00164857
  0.627934 -0.00107842
  0.667099 -0.000634294
  0.706264 -0.000282225
  0.745429 -5.15584e-05
  0.784593 -0.000120969
  0.823758 -7.25246e-05
  0.862923 6.88004e-05
  0.902088 -0.00018022
  0.941253 -0.000593221
  0.980418 -0.000672544
   1.01958 -0.000482752
   1.05875 -0.000332256
   1.09791 -0.000318496
   1.13708 -0.000243691
   1.17624 -7.6969e-05
   1.21541 2.9514e-05
   1.25457 -6.48427e-05
   1.29374 -0.000195432
    1.3329 -0.000466894
   1.37207 -0.00101697
   1.41123 -0.0012335
    1.4504 -0.00109203
   1.48956 -0.00111298
   1.52873 -0.00172336
   1.56789 -0.00246899
   1.60706 -0.00296727
   1.64622 -0.00197432
   1.68539 -0.00163034
   1.72107 -0.0010271
   1.75152 0.000481828
   1.77865 0.00207729
   1.80281 0.00460454
   1.82434 0.00783599
   1.84353 0.00998246
   1.86062  0.0111105
   1.87584  0.0113104
   1.88941  0.0105478
    1.9015 0.00935348
   1.91226 0.00771223
   1.92186 0.00538588
    1.9304 0.00242471
   1.93802 -0.000765676
    1.9448 -0.00351139
   1.95084 -0.00512077
   1.95623 -0.00514865
   1.96103 -0.00358061
    1.9653 -0.000826279
   1.96911 0.00249854
    1.9725 0.00583541
   1.97552 0.00882736
   1.97822  0.0113242
   1.98061  0.0133183
   1.98275  0.0148736
   1.98466  0.0160762
   1.98635  0.0170083
   1.98786  0.0177375
   1.98921  0.0183159
   1.99041  0.0187823
   1.99148  0.0191646
   1.99243   0.019483
   1.99333  0.0197667
   1.99421   0.020037
    1.9951   0.020298
     1.996  0.0205523
   1.99689  0.0208022
   1.99777  0.0210496
   1.99867  0.0212958
   1.99956  0.0215408
         2   0.021662
