         0 -8.54533e-21
  0.000445 -1.46185e-19
  0.001335 -1.99585e-18
  0.002225 2.3672e-18
  0.003115 1.54741e-18
  0.004005 -1.15691e-17
  0.004895 -2.03532e-18
  0.005785 -4.20573e-18
  0.006675 -1.23471e-18
0.00756867 -2.23654e-18
0.00852095 5.29812e-18
0.00958982 4.9219e-18
 0.0107896 -1.22408e-17
 0.0121362 -2.95274e-17
 0.0136477 4.33223e-18
 0.0153442 -4.65725e-18
 0.0172484 4.64739e-18
 0.0193858 -2.86604e-18
 0.0217849 6.37379e-18
 0.0244777 -1.34434e-17
 0.0275001 -3.8497e-19
 0.0308926 2.65399e-17
 0.0347005 1.32919e-17
 0.0389746 -1.35258e-17
 0.0437719 -5.85032e-18
 0.0491566 -4.3634e-17
 0.0552005 -1.57174e-17
 0.0619844 1.26987e-17
 0.0695988 3.11456e-17
 0.0781455 2.64588e-17
 0.0877386 3.49276e-17
 0.0985062 3.12378e-17
  0.110592 7.07426e-17
  0.124158 -2.33305e-17
  0.139384 -3.73457e-17
  0.156474 -2.12862e-17
  0.175657 3.38606e-17
  0.197189 -1.65548e-17
  0.221357 -1.66317e-17
  0.248483 -4.6405e-17
  0.278931 -3.41659e-17
  0.314615 -1.86246e-17
   0.35378 -3.64056e-17
  0.392945 2.91307e-17
   0.43211 3.10646e-18
  0.471275 -3.61732e-17
   0.51044 -2.7154e-17
  0.549604 4.31426e-19
  0.588769 -4.26465e-17
  0.627934 -2.65749e-17
  0.667099 3.47644e-17
  0.706264 1.51682e-17
  0.745429 3.52229e-18
  0.784593 -3.50398e-17
  0.823758 -1.78223e-17
  0.862923 1.23668e-17
  0.902088 -2.24161e-18
  0.941253 -1.1252e-17
  0.980418 -2.69118e-17
   1.01958 -3.54746e-17
   1.05875 2.73052e-17
   1.09791 -1.25011e-17
   1.13708 2.82364e-17
   1.17624 -1.71135e-17
   1.21541 2.64131e-18
   1.25457 -2.85607e-18
   1.29374 -3.36137e-18
    1.3329 6.84013e-18
   1.37207 -1.83405e-17
   1.41123 1.15959e-17
    1.4504 9.88484e-18
   1.48956 1.03614e-17
   1.52873 -2.19381e-17
   1.56789 -1.93253e-17
   1.60706 9.77204e-17
   1.64622 9.55021e-18
   1.68539 2.01106e-17
   1.72107 -2.11073e-17
   1.75152 -1.09603e-17
   1.77865 -1.26701e-17
   1.80281 -2.04864e-18
   1.82434 -2.71258e-17
   1.84353 2.32883e-17
   1.86062 2.52187e-18
   1.87584 3.44746e-17
   1.88941  2.775e-17
    1.9015 -1.40997e-17
   1.91226 -8.39093e-18
   1.92186 7.92658e-18
    1.9304 3.55437e-17
   1.93802 5.82842e-17
    1.9448 -8.20982e-18
   1.95084 4.40379e-17
   1.95623 5.14053e-17
   1.96103 3.90494e-17
    1.9653 2.73205e-17
   1.96911 1.78656e-17
    1.9725 3.58432e-17
   1.97552 5.13178e-18
   1.97822 2.80206e-17
   1.98061 -1.21801e-17
   1.98275 -2.78525e-18
   1.98466 -1.31564e-17
   1.98635 -1.60367e-17
   1.98786 7.30888e-18
   1.98921 2.26562e-17
   1.99041 -3.72155e-18
   1.99148 2.78326e-18
   1.99243 3.42823e-17
   1.99333 2.94564e-17
   1.99421 -1.77081e-17
    1.9951 -1.63509e-18
     1.996 -2.83486e-17
   1.99689 -1.95606e-18
   1.99777 2.72032e-17
   1.99867 4.22979e-18
   1.99956 7.07018e-18
         2 6.6727e-18
