         0 7.95307e-19
  0.000445 3.47901e-18
  0.001335 5.6535e-18
  0.002225 6.01255e-18
  0.003115 -9.77288e-18
  0.004005 1.08768e-17
  0.004895 2.76618e-17
  0.005785 2.5355e-17
  0.006675 6.04888e-17
0.00756867 4.8072e-18
0.00852095 4.34978e-17
0.00958982 -6.64004e-18
 0.0107896 -2.12575e-17
 0.0121362 2.6641e-17
 0.0136477 3.51815e-17
 0.0153442 7.95975e-17
 0.0172484 3.58963e-17
 0.0193858 -6.25386e-17
 0.0217849 2.54025e-17
 0.0244777 1.27531e-16
 0.0275001 1.3472e-16
 0.0308926 1.36424e-17
 0.0347005 2.69729e-16
 0.0389746 1.01891e-16
 0.0437719 1.39887e-16
 0.0491566 1.4088e-16
 0.0552005 -2.9392e-17
 0.0619844 5.33995e-17
 0.0695988 1.33232e-16
 0.0781455 3.36458e-16
 0.0877386 2.72445e-16
 0.0985062 2.04819e-16
  0.110592 1.4548e-16
  0.124158 4.19401e-16
  0.139384 1.82929e-16
  0.156474 1.78323e-16
  0.175657 2.47729e-16
  0.197189 1.39173e-16
  0.221357 3.19034e-17
  0.248483 -7.83373e-18
  0.278931 6.97309e-17
  0.314615 1.4547e-16
   0.35378 9.66516e-17
  0.392945 1.65938e-16
   0.43211 4.70091e-17
  0.471275 -7.49067e-17
   0.51044 -8.62688e-17
  0.549604 -5.70344e-17
  0.588769 -1.90736e-17
  0.627934 -3.97415e-17
  0.667099 6.05604e-17
  0.706264 1.53477e-17
  0.745429 1.83353e-17
  0.784593 -3.44236e-17
  0.823758 2.31293e-17
  0.862923 -9.80849e-17
  0.902088 5.97644e-17
  0.941253 -2.05036e-17
  0.980418 1.08957e-17
   1.01958 -1.18214e-16
   1.05875 -8.49498e-17
   1.09791 -6.63414e-17
   1.13708 -3.40625e-17
   1.17624 -1.29177e-17
   1.21541 -6.31471e-17
   1.25457 -2.20524e-17
   1.29374 1.9329e-18
    1.3329 -1.20781e-16
   1.37207 -7.55329e-17
   1.41123 -2.16049e-18
    1.4504 -1.85256e-16
   1.48956 1.49545e-16
   1.52873 -1.78537e-16
   1.56789 -5.05063e-17
   1.60706 5.4728e-16
   1.64622 -1.47082e-17
   1.68539 -1.03473e-18
   1.72107 1.00311e-16
   1.75152 -8.77698e-17
   1.77865 2.28186e-16
   1.80281 3.55593e-17
   1.82434 -3.11728e-17
   1.84353 4.50338e-16
   1.86062 2.00948e-16
   1.87584 -1.2832e-16
   1.88941 -1.96687e-16
    1.9015 -4.84612e-16
   1.91226 7.62279e-17
   1.92186 -2.40243e-16
    1.9304 1.29239e-16
   1.93802 -4.66969e-16
    1.9448 -3.24629e-16
   1.95084 -2.90994e-16
   1.95623 4.93641e-16
   1.96103 4.78906e-16
    1.9653 -1.33031e-16
   1.96911 -2.70601e-16
    1.9725 1.62537e-17
   1.97552 -2.24887e-17
   1.97822 -9.0985e-17
   1.98061 -1.93259e-16
   1.98275 -2.82077e-16
   1.98466 2.02593e-16
   1.98635 2.62736e-16
   1.98786 -2.86233e-16
   1.98921 2.17883e-16
   1.99041 -1.3737e-16
   1.99148 1.88964e-16
   1.99243 7.5604e-17
   1.99333 -5.41611e-17
   1.99421 -2.47073e-16
    1.9951 2.37197e-16
     1.996 2.58219e-16
   1.99689 3.35776e-17
   1.99777 -8.84848e-19
   1.99867 8.09602e-17
   1.99956 -4.62715e-17
         2 -4.66705e-17
