         0 1.06817e-05
  0.000445 1.06817e-05
  0.001335 6.05572e-05
  0.002225 0.000176373
  0.003115 0.000367634
  0.004005 0.000646102
  0.004895 0.00100851
  0.005785 0.00145152
  0.006675 0.00197425
0.00756867 0.00257202
0.00852095 0.00326747
0.00958982 0.00411369
 0.0107896 0.00513386
 0.0121362 0.00633258
 0.0136477 0.00771884
 0.0153442 0.00929353
 0.0172484  0.0110477
 0.0193858  0.0129608
 0.0217849  0.0149997
 0.0244777  0.0171172
 0.0275001  0.0192517
 0.0308926  0.0213255
 0.0347005  0.0232432
 0.0389746  0.0248914
 0.0437719  0.0261434
 0.0491566  0.0268733
 0.0552005  0.0269719
 0.0619844  0.0263632
 0.0695988  0.0250144
 0.0781455  0.0229447
 0.0877386  0.0202335
 0.0985062  0.0170348
  0.110592  0.0135572
  0.124158  0.0100532
  0.139384 0.00678639
  0.156474 0.00393898
  0.175657 0.00159784
  0.197189 -0.000210728
  0.221357 -0.00147403
  0.248483 -0.0022387
  0.278931 -0.00275212
  0.314615 -0.00259856
   0.35378 -0.00219554
  0.392945 -0.00214572
   0.43211 -0.00221156
  0.471275 -0.00229507
   0.51044 -0.00231352
  0.549604 -0.0022827
  0.588769 -0.00220321
  0.627934 -0.00209711
  0.667099 -0.00197063
  0.706264 -0.00184915
  0.745429 -0.00171944
  0.784593 -0.00154792
  0.823758 -0.00131264
  0.862923 -0.00104909
  0.902088 -0.0007773
  0.941253 -0.000494361
  0.980418 -0.000198751
   1.01958 0.000115933
   1.05875 0.000442149
   1.09791 0.000741352
   1.13708   0.001022
   1.17624 0.00129768
   1.21541 0.00152466
   1.25457 0.00172481
   1.29374 0.00193532
    1.3329 0.00210428
   1.37207 0.00224336
   1.41123 0.00230394
    1.4504 0.00226788
   1.48956 0.00222376
   1.52873 0.00217697
   1.56789 0.00212279
   1.60706 0.00207256
   1.64622 0.00213324
   1.68539 0.00262871
   1.72107 0.00286509
   1.75152 0.00236545
   1.77865 0.00153787
   1.80281 0.000245025
   1.82434 -0.00159591
   1.84353 -0.00398212
   1.86062 -0.00686426
   1.87584 -0.0101358
   1.88941 -0.0135907
    1.9015 -0.0169996
   1.91226 -0.0201465
   1.92186 -0.0228382
    1.9304 -0.0249232
   1.93802 -0.0263048
    1.9448 -0.0269499
   1.95084  -0.026884
   1.95623 -0.0261814
   1.96103 -0.0249514
    1.9653 -0.0233202
   1.96911 -0.0214131
    1.9725 -0.0193431
   1.97552 -0.0172065
   1.97822 -0.0150828
   1.98061 -0.0130354
   1.98275 -0.0111127
   1.98466 -0.00934915
   1.98635 -0.00776561
   1.98786 -0.00637137
   1.98921 -0.00516563
   1.99041 -0.0041394
   1.99148 -0.00328809
   1.99243 -0.0025884
   1.99333 -0.00198693
   1.99421 -0.00146092
    1.9951 -0.00101509
     1.996 -0.000650341
   1.99689 -0.000370052
   1.99777 -0.000177521
   1.99867 -6.094e-05
   1.99956 -1.07459e-05
         2 -1.07459e-05
