         0 -0.000508146
  0.000445 -0.000508146
  0.001335 -0.00137693
  0.002225 -0.00298172
  0.003115 -0.00510592
  0.004005 -0.00783626
  0.004895 -0.0111195
  0.005785 -0.0149124
  0.006675 -0.0191468
0.00756867 -0.0236799
0.00852095  -0.028542
0.00958982 -0.0339277
 0.0107896 -0.0398195
 0.0121362 -0.0460092
 0.0136477 -0.0521787
 0.0153442 -0.0578586
 0.0172484  -0.062444
 0.0193858 -0.0652661
 0.0217849 -0.0657421
 0.0244777 -0.0635654
 0.0275001 -0.0588473
 0.0308926 -0.0521219
 0.0347005    -0.0442
 0.0389746 -0.0359497
 0.0437719 -0.0281059
 0.0491566 -0.0211621
 0.0552005 -0.0153519
 0.0619844 -0.0106934
 0.0695988 -0.00706811
 0.0781455 -0.00430097
 0.0877386 -0.00221677
 0.0985062 -0.000678097
  0.110592 0.000430775
  0.124158 0.00121666
  0.139384 0.00176551
  0.156474 0.00214027
  0.175657 0.00239113
  0.197189  0.0025353
  0.221357 0.00262986
  0.248483 0.00268728
  0.278931 0.00275878
  0.314615  0.0027219
   0.35378 0.00263813
  0.392945  0.0026674
   0.43211  0.0026955
  0.471275 0.00272045
   0.51044 0.00272986
  0.549604 0.00272555
  0.588769 0.00273426
  0.627934 0.00275667
  0.667099 0.00276366
  0.706264 0.00276565
  0.745429 0.00275929
  0.784593 0.00275672
  0.823758 0.00275506
  0.862923 0.00275319
  0.902088 0.00275229
  0.941253 0.00274725
  0.980418 0.00274529
   1.01958 0.00273661
   1.05875 0.00273416
   1.09791 0.00273587
   1.13708 0.00273067
   1.17624  0.0027246
   1.21541 0.00272222
   1.25457 0.00272399
   1.29374 0.00272196
    1.3329 0.00272394
   1.37207 0.00273051
   1.41123 0.00273675
    1.4504 0.00274156
   1.48956 0.00272684
   1.52873 0.00270661
   1.56789 0.00269979
   1.60706 0.00267333
   1.64622  0.0026386
   1.68539 0.00270428
   1.72107 0.00274825
   1.75152 0.00269099
   1.77865 0.00263853
   1.80281 0.00253106
   1.82434 0.00238618
   1.84353 0.00215871
   1.86062 0.00178722
   1.87584 0.00123247
   1.88941 0.000434681
    1.9015 -0.00068443
   1.91226 -0.00221404
   1.92186 -0.00427183
    1.9304 -0.00701262
   1.93802 -0.0106275
    1.9448 -0.0152993
   1.95084 -0.0211401
   1.95623 -0.0281199
   1.96103 -0.0359996
    1.9653 -0.0442894
   1.96911 -0.0522587
    1.9725 -0.0590344
   1.97552 -0.0637965
   1.97822 -0.0660045
   1.98061 -0.0655436
   1.98275 -0.0627202
   1.98466 -0.0581209
   1.98635 -0.0524189
   1.98786 -0.0462233
   1.98921 -0.0400066
   1.99041 -0.0340883
   1.99148 -0.0286779
   1.99243 -0.0237932
   1.99333 -0.0192387
   1.99421 -0.0149839
    1.9951 -0.0111727
     1.996 -0.00787353
   1.99689 -0.00512995
   1.99777 -0.00299548
   1.99867 -0.0013831
   1.99956 -0.000510168
         2 -0.000510168
