         0 -0.000918628
  0.000445 -0.000918628
  0.001335 -0.00154734
  0.002225 -0.00139355
  0.003115 -0.00164495
  0.004005 -0.00190513
  0.004895 -0.00220766
  0.005785 -0.00255284
  0.006675 -0.00302041
0.00756867 -0.0036596
0.00852095 -0.00436162
0.00958982 -0.00504796
 0.0107896 -0.00579863
 0.0121362 -0.00668656
 0.0136477 -0.00773165
 0.0153442 -0.00895731
 0.0172484 -0.0103919
 0.0193858  -0.012059
 0.0217849  -0.013961
 0.0244777 -0.0160635
 0.0275001  -0.018289
 0.0308926  -0.020524
 0.0347005 -0.0226331
 0.0389746 -0.0244716
 0.0437719 -0.0258948
 0.0491566 -0.0267687
 0.0552005 -0.0269817
 0.0619844 -0.0264574
 0.0695988 -0.0251647
 0.0781455 -0.0231257
 0.0877386 -0.0204271
 0.0985062 -0.0172242
  0.110592 -0.0137291
  0.124158 -0.0102007
  0.139384 -0.00690795
  0.156474 -0.00403495
  0.175657 -0.00167854
  0.197189 0.000157561
  0.221357 0.00142039
  0.248483 0.00221624
  0.278931 0.00268993
  0.314615 0.00258536
   0.35378 0.00224444
  0.392945 0.00217748
   0.43211 0.00224668
  0.471275 0.00231847
   0.51044 0.00233858
  0.549604 0.00230102
  0.588769 0.00222161
  0.627934 0.00211124
  0.667099 0.00198406
  0.706264 0.00185982
  0.745429 0.00173132
  0.784593 0.00155772
  0.823758 0.00132194
  0.862923  0.0010549
  0.902088 0.000782125
  0.941253 0.000496763
  0.980418 0.000200217
   1.01958 -0.000116285
   1.05875 -0.000445203
   1.09791 -0.00074647
   1.13708 -0.00102793
   1.17624 -0.00130516
   1.21541 -0.00153305
   1.25457 -0.00173708
   1.29374 -0.00194674
    1.3329 -0.00211918
   1.37207 -0.0022602
   1.41123 -0.00232388
    1.4504 -0.00228744
   1.48956 -0.00224517
   1.52873 -0.00219997
   1.56789 -0.00215539
   1.60706 -0.00210348
   1.64622 -0.00218482
   1.68539 -0.00261232
   1.72107 -0.00280605
   1.75152 -0.0023412
   1.77865 -0.00148717
   1.80281 -0.000190755
   1.82434 0.00167269
   1.84353 0.00407782
   1.86062 0.00698777
   1.87584  0.0102836
   1.88941  0.0137624
    1.9015  0.0171866
   1.91226  0.0203376
   1.92186  0.0230189
    1.9304  0.0250737
   1.93802  0.0264005
    1.9448   0.026962
   1.95084   0.026782
   1.95623  0.0259355
   1.96103  0.0245345
    1.9653  0.0227124
   1.96911  0.0206122
    1.9725  0.0183786
   1.97552  0.0161487
   1.97822  0.0140385
   1.98061  0.0121277
   1.98275  0.0104521
   1.98466 0.00901009
   1.98635 0.00777785
   1.98786 0.00672689
   1.98921 0.00583373
   1.99041 0.00507848
   1.99148 0.00438788
   1.99243 0.00368159
   1.99333 0.00303853
   1.99421 0.00256804
    1.9951 0.00222059
     1.996 0.00191605
   1.99689 0.00165417
   1.99777 0.00140128
   1.99867 0.00155533
   1.99956 0.000923116
         2 0.000923116
