         0          0
  0.000445 9.88556e-05
  0.001335 5.77783e-05
  0.002225 6.17316e-05
  0.003115 6.11131e-05
  0.004005 6.10069e-05
  0.004895 6.08137e-05
  0.005785 6.05929e-05
  0.006675 6.03418e-05
0.00756867 5.9951e-05
0.00852095 6.29651e-05
0.00958982 6.55509e-05
 0.0107896 6.81052e-05
 0.0121362 7.05033e-05
 0.0136477 7.26638e-05
 0.0153442 7.44774e-05
 0.0172484 7.58204e-05
 0.0193858 7.65661e-05
 0.0217849 7.66084e-05
 0.0244777 7.58916e-05
 0.0275001 7.44358e-05
 0.0308926 7.23439e-05
 0.0347005 6.97839e-05
 0.0389746 6.69627e-05
 0.0437719 6.40947e-05
 0.0491566  6.137e-05
 0.0552005 5.89327e-05
 0.0619844 5.68675e-05
 0.0695988 5.51982e-05
 0.0781455 5.3903e-05
 0.0877386 5.29419e-05
 0.0985062 5.22688e-05
  0.110592 5.18266e-05
  0.124158 5.15641e-05
  0.139384 5.14505e-05
  0.156474 5.14337e-05
  0.175657 5.14629e-05
  0.197189 5.14759e-05
  0.221357 5.14184e-05
  0.248483 5.13197e-05
  0.278931 5.09804e-05
  0.314615 5.32996e-05
   0.35378 4.95147e-05
  0.392945 4.65108e-05
   0.43211 4.38493e-05
  0.471275 4.14944e-05
   0.51044 3.93363e-05
  0.549604 3.7325e-05
  0.588769 3.54409e-05
  0.627934 3.36858e-05
  0.667099 3.21068e-05
  0.706264 3.06562e-05
  0.745429 2.93104e-05
  0.784593 2.80824e-05
  0.823758 2.6986e-05
  0.862923 2.60584e-05
  0.902088 2.53426e-05
  0.941253 2.48475e-05
  0.980418 2.45913e-05
   1.01958 2.46021e-05
   1.05875 2.48516e-05
   1.09791 2.53384e-05
   1.13708 2.60571e-05
   1.17624 2.69569e-05
   1.21541 2.80359e-05
   1.25457 2.93029e-05
   1.29374 3.07267e-05
    1.3329 3.22783e-05
   1.37207 3.39114e-05
   1.41123 3.5626e-05
    1.4504 3.74628e-05
   1.48956 3.94127e-05
   1.52873 4.15241e-05
   1.56789 4.38577e-05
   1.60706 4.64518e-05
   1.64622 4.94545e-05
   1.68539 5.33213e-05
   1.72107 5.10615e-05
   1.75152 5.14051e-05
   1.77865 5.15069e-05
   1.80281 5.15854e-05
   1.82434  5.161e-05
   1.84353 5.15857e-05
   1.86062 5.15746e-05
   1.87584 5.16546e-05
   1.88941 5.18777e-05
    1.9015 5.22919e-05
   1.91226 5.29442e-05
   1.92186 5.3881e-05
    1.9304 5.51555e-05
   1.93802 5.68128e-05
    1.9448 5.88745e-05
   1.95084 6.13152e-05
   1.95623 6.40476e-05
   1.96103 6.69249e-05
    1.9653 6.97577e-05
   1.96911 7.23336e-05
    1.9725 7.44447e-05
   1.97552 7.59191e-05
   1.97822 7.66524e-05
   1.98061 7.66238e-05
   1.98275 7.58885e-05
   1.98466 7.45527e-05
   1.98635 7.27435e-05
   1.98786 7.05854e-05
   1.98921 6.81882e-05
   1.99041 6.56335e-05
   1.99148 6.30466e-05
   1.99243 6.00302e-05
   1.99333 6.04233e-05
   1.99421 6.06754e-05
    1.9951 6.08972e-05
     1.996 6.10912e-05
   1.99689 6.11978e-05
   1.99777 6.18182e-05
   1.99867 5.78545e-05
   1.99956 9.90331e-05
         2          0
