         0 0.00264717
  0.000445 0.00264717
  0.001335 0.00264553
  0.002225 0.00264441
  0.003115 0.00264305
  0.004005 0.00264149
  0.004895 0.00263966
  0.005785 0.00263756
  0.006675 0.00263512
0.00756867 0.00263217
0.00852095 0.00262834
0.00958982 0.00262331
 0.0107896 0.00261684
 0.0121362 0.00260849
 0.0136477 0.00259765
 0.0153442 0.00258358
 0.0172484 0.00256526
 0.0193858  0.0025414
 0.0217849 0.00251033
 0.0244777 0.00247002
 0.0275001 0.00241816
 0.0308926 0.00235227
 0.0347005 0.00226992
 0.0389746 0.00216889
 0.0437719 0.00204749
 0.0491566 0.00190488
 0.0552005 0.00174137
 0.0619844 0.00155881
 0.0695988 0.00136081
 0.0781455 0.00115291
 0.0877386 0.000942569
 0.0985062 0.000738759
  0.110592 0.000551182
  0.124158 0.000389239
  0.139384 0.000260369
  0.156474 0.000168895
  0.175657 0.000116764
  0.197189 0.000102995
  0.221357 0.000126065
  0.248483 0.000177231
  0.278931 0.00025476
  0.314615 0.000355873
   0.35378 0.000447409
  0.392945 0.00053168
   0.43211 0.00061797
  0.471275 0.000707661
   0.51044 0.000799575
  0.549604 0.000890841
  0.588769 0.000979813
  0.627934 0.00106486
  0.667099 0.00114519
  0.706264 0.00122027
  0.745429 0.00129087
  0.784593 0.00135588
  0.823758 0.00141288
  0.862923 0.00145943
  0.902088 0.00149551
  0.941253 0.00152069
  0.980418 0.00153442
   1.01958 0.00153638
   1.05875 0.00152531
   1.09791  0.0015015
   1.13708 0.00146684
   1.17624 0.00142099
   1.21541 0.00136461
   1.25457  0.0013009
   1.29374 0.00122854
    1.3329 0.00114841
   1.37207 0.00106255
   1.41123 0.000971373
    1.4504 0.000880519
   1.48956 0.000792198
   1.52873 0.000704655
   1.56789 0.000619875
   1.60706 0.000535823
   1.64622 0.000455109
   1.68539 0.000364686
   1.72107 0.000260635
   1.75152 0.000178542
   1.77865 0.000124664
   1.80281 0.000100783
   1.82434 0.000113845
   1.84353 0.000166381
   1.86062 0.000258958
   1.87584 0.000389274
   1.88941 0.000552174
    1.9015 0.000739699
   1.91226 0.000942741
   1.92186 0.00115204
    1.9304 0.00135904
   1.93802 0.00155646
    1.9448 0.00173876
   1.95084 0.00190225
   1.95623 0.00204502
   1.96103 0.00216666
    1.9653   0.002268
   1.96911 0.00235069
    1.9725 0.00241688
   1.97552   0.002469
   1.97822 0.00250953
   1.98061 0.00254078
   1.98275 0.00256478
   1.98466  0.0025832
   1.98635 0.00259736
   1.98786 0.00260826
   1.98921 0.00261667
   1.99041 0.00262317
   1.99148 0.00262823
   1.99243 0.00263208
   1.99333 0.00263505
   1.99421  0.0026375
    1.9951 0.00263962
     1.996 0.00264146
   1.99689 0.00264303
   1.99777  0.0026444
   1.99867 0.00264553
   1.99956 0.00264717
         2 0.00264717
