         0 6.08804e-05
  0.000445 6.08804e-05
  0.001335 6.08645e-05
  0.002225 6.08502e-05
  0.003115 6.08402e-05
  0.004005 6.08415e-05
  0.004895 6.08537e-05
  0.005785 6.08763e-05
  0.006675 6.09087e-05
0.00756867 6.09485e-05
0.00852095 6.09968e-05
0.00958982 6.10613e-05
 0.0107896 6.11495e-05
 0.0121362 6.12671e-05
 0.0136477 6.14207e-05
 0.0153442 6.1618e-05
 0.0172484 6.18678e-05
 0.0193858 6.21793e-05
 0.0217849 6.25621e-05
 0.0244777 6.30247e-05
 0.0275001 6.35736e-05
 0.0308926 6.42116e-05
 0.0347005 6.4936e-05
 0.0389746 6.57358e-05
 0.0437719 6.65896e-05
 0.0491566 6.74633e-05
 0.0552005 6.83096e-05
 0.0619844 6.9069e-05
 0.0695988 6.96738e-05
 0.0781455 7.00529e-05
 0.0877386 7.01385e-05
 0.0985062 6.98757e-05
  0.110592 6.92316e-05
  0.124158 6.82021e-05
  0.139384 6.68222e-05
  0.156474 6.5165e-05
  0.175657 6.33092e-05
  0.197189 6.1315e-05
  0.221357 5.92377e-05
  0.248483 5.7169e-05
  0.278931 5.51295e-05
  0.314615 5.30376e-05
   0.35378 5.09834e-05
  0.392945 4.91867e-05
   0.43211 4.75725e-05
  0.471275 4.60824e-05
   0.51044 4.47025e-05
  0.549604  4.341e-05
  0.588769 4.21919e-05
  0.627934 4.10613e-05
  0.667099 4.00092e-05
  0.706264 3.90428e-05
  0.745429 3.81679e-05
  0.784593 3.73861e-05
  0.823758 3.67065e-05
  0.862923 3.61507e-05
  0.902088 3.57337e-05
  0.941253 3.54514e-05
  0.980418 3.53036e-05
   1.01958 3.52974e-05
   1.05875 3.54351e-05
   1.09791 3.57128e-05
   1.13708 3.61249e-05
   1.17624 3.66677e-05
   1.21541 3.73174e-05
   1.25457 3.80619e-05
   1.29374 3.89091e-05
    1.3329 3.98671e-05
   1.37207 4.09315e-05
   1.41123 4.21084e-05
    1.4504 4.33606e-05
   1.48956 4.46691e-05
   1.52873 4.60604e-05
   1.56789 4.75531e-05
   1.60706 4.91542e-05
   1.64622 5.09544e-05
   1.68539 5.30114e-05
   1.72107 5.51454e-05
   1.75152 5.72823e-05
   1.77865 5.94303e-05
   1.80281 6.15364e-05
   1.82434 6.35333e-05
   1.84353 6.53747e-05
   1.86062 6.70013e-05
   1.87584 6.83542e-05
   1.88941 6.93806e-05
    1.9015 7.00496e-05
   1.91226 7.0356e-05
   1.92186 7.03188e-05
    1.9304 6.99808e-05
   1.93802 6.94041e-05
    1.9448 6.86602e-05
   1.95084 6.78199e-05
   1.95623 6.6946e-05
   1.96103 6.6088e-05
    1.9653 6.52817e-05
   1.96911 6.45498e-05
    1.9725 6.3904e-05
   1.97552 6.33479e-05
   1.97822 6.2879e-05
   1.98061 6.24909e-05
   1.98275 6.21749e-05
   1.98466 6.19216e-05
   1.98635 6.17215e-05
   1.98786 6.15656e-05
   1.98921 6.14463e-05
   1.99041 6.13568e-05
   1.99148 6.12912e-05
   1.99243 6.12422e-05
   1.99333 6.12018e-05
   1.99421 6.11688e-05
    1.9951 6.11458e-05
     1.996 6.11333e-05
   1.99689 6.11318e-05
   1.99777 6.11418e-05
   1.99867 6.11562e-05
   1.99956 6.11723e-05
         2 6.11723e-05
