         0          0
  0.000445 -2.27283e-05
  0.001335 -0.000102715
  0.002225 -0.000321681
  0.003115 -0.000713203
  0.004005 -0.0013431
  0.004895 -0.00225484
  0.005785 -0.00348748
  0.006675 -0.00506663
0.00756867 -0.00698067
0.00852095 -0.00928623
0.00958982 -0.0121382
 0.0107896 -0.0156227
 0.0121362 -0.0197342
 0.0136477 -0.0243852
 0.0153442 -0.0293562
 0.0172484 -0.0342691
 0.0193858 -0.0386015
 0.0217849 -0.0417691
 0.0244777 -0.0432726
 0.0275001 -0.0428538
 0.0308926 -0.0405823
 0.0347005 -0.0368271
 0.0389746 -0.0321379
 0.0437719  -0.027095
 0.0491566 -0.0221845
 0.0552005 -0.0177298
 0.0619844 -0.0138828
 0.0695988 -0.0106632
 0.0781455 -0.00801397
 0.0877386 -0.00585302
 0.0985062 -0.00411347
  0.110592 -0.00273673
  0.124158 -0.00165807
  0.139384 -0.000812493
  0.156474 -0.000151384
  0.175657 0.000368994
  0.197189 0.000767864
  0.221357 0.00109427
  0.248483 0.00136721
  0.278931 0.00163442
  0.314615 0.00181687
   0.35378 0.00191948
  0.392945 0.00209539
   0.43211 0.00224385
  0.471275 0.00236815
   0.51044 0.00246232
  0.549604 0.00253433
  0.588769 0.00261089
  0.627934 0.00269315
  0.667099 0.00275354
  0.706264 0.00280379
  0.745429 0.00284103
  0.784593 0.00287694
  0.823758 0.00290759
  0.862923 0.00293183
  0.902088 0.00295123
  0.941253 0.00295908
  0.980418 0.00296378
   1.01958 0.00295486
   1.05875 0.00294581
   1.09791 0.00293454
   1.13708 0.00290866
   1.17624 0.00287558
   1.21541 0.00284319
   1.25457 0.00280808
   1.29374 0.00276278
    1.3329  0.0027178
   1.37207 0.00267165
   1.41123 0.00261764
    1.4504 0.00255318
   1.48956  0.0024594
   1.52873 0.00234814
   1.56789 0.00223858
   1.60706 0.00209295
   1.64622 0.00191316
   1.68539 0.00179577
   1.72107 0.00161889
   1.75152 0.00135717
   1.77865  0.0010842
   1.80281 0.000741162
   1.82434 0.000347243
   1.84353 -0.00014653
   1.86062 -0.000798413
   1.87584 -0.00164427
   1.88941 -0.00273414
    1.9015 -0.00412016
   1.91226 -0.00585253
   1.92186 -0.00799606
    1.9304  -0.010631
   1.93802 -0.0138487
    1.9448 -0.0177108
   1.95084  -0.022193
   1.95623 -0.0271323
   1.96103 -0.0321993
    1.9653 -0.0369112
   1.96911 -0.0406917
    1.9725 -0.0429884
   1.97552 -0.0434254
   1.97822   -0.04193
   1.98061 -0.0387597
   1.98275 -0.0344151
   1.98466 -0.0294839
   1.98635 -0.0244923
   1.98786  -0.019821
   1.98921 -0.0156914
   1.99041 -0.0121914
   1.99148 -0.00932675
   1.99243 -0.00701096
   1.99333 -0.00508842
   1.99421 -0.00350229
    1.9951 -0.00226427
     1.996 -0.0013486
   1.99689 -0.000716039
   1.99777 -0.000322901
   1.99867 -0.000103078
   1.99956 -2.2792e-05
         2          0
