         0          0
  0.000445 -0.000213613
  0.001335 -0.000335974
  0.002225 -0.000443526
  0.003115 -0.000519522
  0.004005 -0.000572922
  0.004895 -0.000608124
  0.005785 -0.000629177
  0.006675 -0.000638281
0.00756867 -0.00063614
0.00852095 -0.000626287
0.00958982 -0.000613017
 0.0107896 -0.000597202
 0.0121362 -0.000578442
 0.0136477 -0.00055752
 0.0153442 -0.000534824
 0.0172484 -0.000509438
 0.0193858 -0.000478833
 0.0217849 -0.000439197
 0.0244777 -0.000386347
 0.0275001 -0.000317026
 0.0308926 -0.000230268
 0.0347005 -0.000128537
 0.0389746 -1.8273e-05
 0.0437719 9.05477e-05
 0.0491566 0.000186078
 0.0552005 0.000257138
 0.0619844 0.000295962
 0.0695988 0.000300394
 0.0781455 0.000274632
 0.0877386 0.000227923
 0.0985062 0.000172667
  0.110592 0.000121243
  0.124158 8.24486e-05
  0.139384 5.81168e-05
  0.156474 4.57739e-05
  0.175657 4.29668e-05
  0.197189 4.68659e-05
  0.221357 5.51084e-05
  0.248483 6.03025e-05
  0.278931 6.32757e-05
  0.314615 4.9431e-05
   0.35378 3.53156e-05
  0.392945 2.61649e-05
   0.43211 2.01109e-05
  0.471275 1.97423e-05
   0.51044 2.21367e-05
  0.549604 2.27081e-05
  0.588769 2.36727e-05
  0.627934 2.48261e-05
  0.667099 2.4612e-05
  0.706264 2.32845e-05
  0.745429 2.09746e-05
  0.784593 1.90891e-05
  0.823758 1.77215e-05
  0.862923 1.65239e-05
  0.902088 1.53692e-05
  0.941253 1.48069e-05
  0.980418 1.46796e-05
   1.01958 1.43103e-05
   1.05875 1.39639e-05
   1.09791 1.40916e-05
   1.13708 1.5642e-05
   1.17624 1.74701e-05
   1.21541 1.67342e-05
   1.25457 1.70128e-05
   1.29374  1.779e-05
    1.3329 1.66836e-05
   1.37207 1.53148e-05
   1.41123 1.47008e-05
    1.4504 1.62501e-05
   1.48956 1.91105e-05
   1.52873 2.4126e-05
   1.56789 2.94379e-05
   1.60706 3.47889e-05
   1.64622 4.19446e-05
   1.68539 5.03997e-05
   1.72107 6.1421e-05
   1.75152 6.55167e-05
   1.77865 6.73582e-05
   1.80281 6.0586e-05
   1.82434 4.98723e-05
   1.84353 4.33661e-05
   1.86062 4.86832e-05
   1.87584 7.21417e-05
   1.88941 0.000113576
    1.9015 0.000166741
   1.91226 0.000222771
   1.92186 0.000270726
    1.9304 0.000298306
   1.93802 0.000295563
    1.9448 0.000257954
   1.95084 0.00018739
   1.95623 9.16499e-05
   1.96103 -1.77499e-05
    1.9653 -0.000128632
   1.96911 -0.000230864
    1.9725 -0.000317965
   1.97552 -0.00038751
   1.97822 -0.000440514
   1.98061 -0.000480264
   1.98275 -0.000510973
   1.98466 -0.000536485
   1.98635 -0.000559351
   1.98786 -0.00058049
   1.98921 -0.000599505
   1.99041 -0.000615593
   1.99148 -0.000629139
   1.99243 -0.000639257
   1.99333 -0.000641622
   1.99421 -0.000632681
    1.9951 -0.000611717
     1.996 -0.000576503
   1.99689 -0.000522942
   1.99777 -0.000446589
   1.99867 -0.000338401
   1.99956 -0.000215226
         2          0
