         0          0
  0.000445   -1317.07
  0.001335    221.441
  0.002225    -45.417
  0.003115   -2.70213
  0.004005   -13.9162
  0.004895   -18.2888
  0.005785   -25.6746
  0.006675   -32.2098
0.00756867   -125.405
0.00852095   -215.846
0.00958982   -213.455
 0.0107896   -224.035
 0.0121362   -235.483
 0.0136477   -249.268
 0.0153442   -264.778
 0.0172484   -280.976
 0.0193858   -295.925
 0.0217849   -306.868
 0.0244777   -310.796
 0.0275001   -305.413
 0.0308926   -290.071
 0.0347005   -266.018
 0.0389746   -235.818
 0.0437719   -202.555
 0.0491566   -169.144
 0.0552005   -137.866
 0.0619844   -110.186
 0.0695988   -86.7894
 0.0781455   -67.7357
 0.0877386   -52.6036
 0.0985062   -40.8463
  0.110592   -31.8701
  0.124158   -25.0636
  0.139384   -19.8839
  0.156474   -15.9051
  0.175657   -12.8049
  0.197189   -10.4625
  0.221357   -8.54784
  0.248483   -6.95879
  0.278931   -5.70704
  0.314615   -4.59563
   0.35378   -4.29534
  0.392945    -3.7977
   0.43211   -3.33791
  0.471275   -2.93492
   0.51044   -2.67675
  0.549604   -2.54293
  0.588769   -2.35765
  0.627934   -2.10566
  0.667099   -1.93789
  0.706264   -1.82932
  0.745429   -1.78657
  0.784593   -1.72129
  0.823758   -1.66356
  0.862923   -1.63168
  0.902088   -1.61587
  0.941253   -1.64205
  0.980418   -1.63454
   1.01958   -1.67234
   1.05875   -1.65461
   1.09791   -1.62045
   1.13708   -1.66592
   1.17624   -1.71252
   1.21541    -1.7561
   1.25457   -1.79467
   1.29374   -1.87515
    1.3329    -1.9992
   1.37207   -2.12449
   1.41123   -2.25558
    1.4504   -2.41496
   1.48956    -2.6946
   1.52873   -3.02457
   1.56789   -3.29348
   1.60706   -3.72539
   1.64622   -4.24599
   1.68539   -4.70143
   1.72107   -5.88374
   1.75152      -7.04
   1.77865   -8.52002
   1.80281   -10.4712
   1.82434   -12.8085
   1.84353   -15.7835
   1.86062   -19.7413
   1.87584   -24.9403
   1.88941   -31.7838
    1.9015   -40.8371
   1.91226   -52.6539
   1.92186   -67.7737
    1.9304   -86.7693
   1.93802   -110.141
    1.9448   -137.896
   1.95084    -169.32
   1.95623   -202.865
   1.96103   -236.253
    1.9653   -266.615
   1.96911   -290.859
    1.9725   -306.353
   1.97552   -311.837
   1.97822   -307.958
   1.98061   -296.989
   1.98275   -281.975
   1.98466   -265.702
   1.98635    -250.12
   1.98786   -236.274
   1.98921   -224.774
   1.99041   -214.146
   1.99148   -216.533
   1.99243   -125.815
   1.99333   -32.3514
   1.99421   -25.8011
    1.9951   -18.3799
     1.996   -13.9859
   1.99689   -2.72681
   1.99777   -45.5877
   1.99867    222.184
   1.99956   -1321.54
         2          0
