         0          0
  0.000445  0.0655517
  0.001335 -0.0116418
  0.002225 0.00132403
  0.003115 -0.00134211
  0.004005 -0.00152274
  0.004895 -0.00230924
  0.005785 -0.00325059
  0.006675 -0.00457325
0.00756867 -0.00188855
0.00852095 0.000285865
0.00958982 -0.0027375
 0.0107896 -0.00573944
 0.0121362 -0.00932412
 0.0136477 -0.0133288
 0.0153442 -0.0175611
 0.0172484 -0.0216883
 0.0193858 -0.0252737
 0.0217849 -0.0278591
 0.0244777 -0.0290881
 0.0275001 -0.0288183
 0.0308926  -0.027163
 0.0347005 -0.0244471
 0.0389746 -0.0211138
 0.0437719 -0.0176106
 0.0491566 -0.0142957
 0.0552005 -0.0113904
 0.0619844 -0.00897859
 0.0695988 -0.00704305
 0.0781455 -0.00551127
 0.0877386 -0.00430455
 0.0985062 -0.00336298
  0.110592 -0.00263499
  0.124158 -0.00207105
  0.139384 -0.00163196
  0.156474 -0.00129376
  0.175657 -0.00103276
  0.197189 -0.000833992
  0.221357 -0.00067287
  0.248483 -0.000539709
  0.278931 -0.000419067
  0.314615 -0.00035174
   0.35378 -0.000332675
  0.392945 -0.000272271
   0.43211 -0.000224313
  0.471275 -0.000186582
   0.51044 -0.000161729
  0.549604 -0.00014458
  0.588769 -0.000127141
  0.627934 -0.000108695
  0.667099 -9.46689e-05
  0.706264 -8.50126e-05
  0.745429 -7.86347e-05
  0.784593 -7.15435e-05
  0.823758 -6.64104e-05
  0.862923 -6.22321e-05
  0.902088 -5.89108e-05
  0.941253 -5.77662e-05
  0.980418 -5.653e-05
   1.01958 -5.77855e-05
   1.05875 -5.82146e-05
   1.09791 -5.88955e-05
   1.13708 -6.2592e-05
   1.17624 -6.78428e-05
   1.21541 -7.31224e-05
   1.25457 -7.81532e-05
   1.29374 -8.76769e-05
    1.3329 -9.82691e-05
   1.37207 -0.000109683
   1.41123 -0.000123742
    1.4504 -0.000139045
   1.48956 -0.000161667
   1.52873 -0.000189649
   1.56789 -0.000221374
   1.60706 -0.0002678
   1.64622 -0.000332077
   1.68539 -0.000360509
   1.72107 -0.000429538
   1.75152 -0.000543332
   1.77865 -0.000669709
   1.80281 -0.000837511
   1.82434 -0.00103687
   1.84353 -0.0012882
   1.86062 -0.00162443
   1.87584 -0.00206184
   1.88941 -0.00263143
    1.9015 -0.00336744
   1.91226 -0.00430526
   1.92186 -0.00549947
    1.9304 -0.00702147
   1.93802 -0.00895607
    1.9448 -0.0113775
   1.95084 -0.0143023
   1.95623  -0.017641
   1.96103 -0.0211646
    1.9653 -0.0245149
   1.96911 -0.0272487
    1.9725 -0.0289232
   1.97552  -0.029207
   1.97822 -0.0279837
   1.98061 -0.0253962
   1.98275 -0.0218006
   1.98466 -0.0176574
   1.98635 -0.0134064
   1.98786 -0.00938328
   1.98921 -0.0057818
   1.99041 -0.00276573
   1.99148 0.000270992
   1.99243 -0.00190635
   1.99333 -0.00459527
   1.99421 -0.00326574
    1.9951 -0.00232016
     1.996 -0.00153015
   1.99689 -0.00134842
   1.99777 0.00132744
   1.99867 -0.0116822
   1.99956  0.0657735
         2          0
