         0          0
  0.000445 1.89199e-05
  0.001335 3.32834e-05
  0.002225 4.99697e-05
  0.003115 6.63497e-05
  0.004005 8.27249e-05
  0.004895 9.90539e-05
  0.005785 0.000115331
  0.006675 0.000131543
0.00756867 0.000147747
0.00852095 0.000164668
0.00958982 0.000182967
 0.0107896 0.00020273
 0.0121362 0.000223998
 0.0136477 0.000246796
 0.0153442 0.000271139
 0.0172484 0.000297034
 0.0193858 0.000324484
 0.0217849 0.000353478
 0.0244777 0.000383962
 0.0275001 0.000415723
 0.0308926 0.000448252
 0.0347005 0.000480727
 0.0389746 0.000511614
 0.0437719 0.000538243
 0.0491566 0.000557167
 0.0552005 0.000565347
 0.0619844 0.000562292
 0.0695988 0.000552192
 0.0781455 0.000544465
 0.0877386 0.000554051
 0.0985062 0.000598933
  0.110592 0.000690719
  0.124158 0.000827993
  0.139384 0.000989291
  0.156474 0.00114649
  0.175657 0.00127687
  0.197189 0.00135245
  0.221357 0.00135881
  0.248483 0.00132737
  0.278931 0.00132729
  0.314615 0.00142642
   0.35378 0.00166046
  0.392945 0.00190733
   0.43211 0.00192687
  0.471275 0.00173289
   0.51044 0.00156888
  0.549604 0.00148115
  0.588769 0.00141808
  0.627934 0.00136847
  0.667099 0.00123604
  0.706264 0.00102234
  0.745429 0.000805474
  0.784593 0.000612347
  0.823758 0.000487714
  0.862923 0.00038934
  0.902088 0.000269501
  0.941253 0.000146637
  0.980418 -1.4453e-05
   1.01958 -0.000261962
   1.05875 -0.000523696
   1.09791 -0.000722483
   1.13708 -0.000841564
   1.17624 -0.000887437
   1.21541 -0.000901333
   1.25457 -0.000852358
   1.29374 -0.000856294
    1.3329 -0.000963269
   1.37207   -0.00108
   1.41123 -0.0011724
    1.4504 -0.00122834
   1.48956 -0.00116513
   1.52873 -0.000989045
   1.56789 -0.00076827
   1.60706 -0.000574984
   1.64622 -0.000519094
   1.68539 -0.000540457
   1.72107 -0.000609795
   1.75152 -0.000774917
   1.77865 -0.000963635
   1.80281 -0.00112136
   1.82434 -0.00127063
   1.84353 -0.00141946
   1.86062 -0.00155617
   1.87584 -0.00166699
   1.88941 -0.00173839
    1.9015 -0.00176829
   1.91226 -0.00176287
   1.92186 -0.00173055
    1.9304 -0.00167679
   1.93802 -0.00160565
    1.9448 -0.00152226
   1.95084 -0.0014326
   1.95623 -0.00134238
   1.96103 -0.0012551
    1.9653 -0.0011717
   1.96911 -0.00109184
    1.9725  -0.001015
   1.97552 -0.000940802
   1.97822 -0.000869136
   1.98061 -0.000800096
   1.98275 -0.000733904
   1.98466 -0.000670838
   1.98635 -0.000611151
   1.98786 -0.000555021
   1.98921 -0.000502529
   1.99041 -0.000453668
   1.99148 -0.00040837
   1.99243 -0.000366436
   1.99333 -0.000326239
   1.99421 -0.000285987
    1.9951 -0.000245544
     1.996 -0.000204955
   1.99689 -0.000164249
   1.99777 -0.00012355
   1.99867 -8.21541e-05
   1.99956 -4.65825e-05
         2          0
