         0          0
  0.000445  0.0249513
  0.001335  0.0433641
  0.002225  0.0649694
  0.003115  0.0861863
  0.004005   0.107417
  0.004895   0.128601
  0.005785   0.149726
  0.006675   0.170774
0.00756867   0.191821
0.00852095   0.213807
0.00958982   0.237592
 0.0107896   0.263294
 0.0121362   0.290963
 0.0136477   0.320615
 0.0153442   0.352208
 0.0172484   0.385624
 0.0193858   0.420647
 0.0217849   0.456948
 0.0244777    0.49408
 0.0275001   0.531503
 0.0308926   0.568616
 0.0347005   0.604823
 0.0389746   0.639579
 0.0437719   0.672437
 0.0491566   0.703078
 0.0552005   0.731318
 0.0619844   0.757108
 0.0695988   0.780518
 0.0781455   0.801717
 0.0877386   0.820942
 0.0985062   0.838481
  0.110592    0.85464
  0.124158   0.869725
  0.139384   0.884026
  0.156474   0.897807
  0.175657   0.911312
  0.197189   0.924775
  0.221357   0.938361
  0.248483    0.95226
  0.278931   0.966705
  0.314615   0.982602
   0.35378   0.998942
  0.392945    1.01393
   0.43211    1.02771
  0.471275    1.04049
   0.51044    1.05244
  0.549604    1.06359
  0.588769    1.07382
  0.627934    1.08315
  0.667099    1.09169
  0.706264    1.09948
  0.745429    1.10652
  0.784593     1.1127
  0.823758    1.11798
  0.862923    1.12233
  0.902088    1.12569
  0.941253    1.12802
  0.980418    1.12923
   1.01958     1.1293
   1.05875    1.12819
   1.09791    1.12595
   1.13708    1.12267
   1.17624    1.11835
   1.21541    1.11303
   1.25457    1.10676
   1.29374    1.09962
    1.3329    1.09165
   1.37207    1.08286
   1.41123    1.07329
    1.4504    1.06298
   1.48956    1.05197
   1.52873    1.04015
   1.56789    1.02737
   1.60706    1.01364
   1.64622   0.998777
   1.68539   0.982627
   1.72107   0.966759
   1.75152   0.952187
   1.77865    0.93814
   1.80281   0.924455
   1.82434   0.910922
   1.84353   0.897372
   1.86062   0.883611
   1.87584   0.869383
   1.88941   0.854396
    1.9015   0.838343
   1.91226   0.820904
   1.92186   0.801763
    1.9304   0.780639
   1.93802   0.757304
    1.9448   0.731591
   1.95084   0.703426
   1.95623   0.672852
   1.96103   0.640049
    1.9653   0.605335
   1.96911   0.569156
    1.9725   0.532055
   1.97552   0.494632
   1.97822   0.457487
   1.98061   0.421166
   1.98275   0.386116
   1.98466   0.352669
   1.98635   0.321044
   1.98786   0.291359
   1.98921   0.263658
   1.99041   0.237924
   1.99148   0.214109
   1.99243   0.192095
   1.99333    0.17102
   1.99421   0.149943
    1.9951   0.128789
     1.996   0.107577
   1.99689  0.0863167
   1.99777  0.0650707
   1.99867  0.0434351
   1.99956  0.0250009
         2          0
