         0          0
  0.000445 0.000139988
  0.001335 0.00026942
  0.002225 0.000535134
  0.003115 0.000874334
  0.004005  0.0012984
  0.004895 0.00180418
  0.005785 0.00239028
  0.006675 0.00305393
0.00756867 0.00379544
0.00852095 0.00464657
0.00958982 0.00564517
 0.0107896 0.00680775
 0.0121362 0.00814305
 0.0136477 0.00965157
 0.0153442  0.0113198
 0.0172484  0.0131148
 0.0193858  0.0149792
 0.0217849  0.0168306
 0.0244777  0.0185669
 0.0275001  0.0200782
 0.0308926  0.0212631
 0.0347005  0.0220437
 0.0389746   0.022375
 0.0437719  0.0222504
 0.0491566   0.021701
 0.0552005  0.0207908
 0.0619844  0.0196076
 0.0695988  0.0182492
 0.0781455  0.0168087
 0.0877386  0.0153636
 0.0985062  0.0139743
  0.110592  0.0126857
  0.124158  0.0115224
  0.139384  0.0104883
  0.156474 0.00958292
  0.175657 0.00879718
  0.197189 0.00811414
  0.221357 0.00752067
  0.248483 0.00699356
  0.278931 0.00652323
  0.314615 0.00605815
   0.35378 0.00562527
  0.392945 0.00522539
   0.43211 0.00485556
  0.471275 0.00450855
   0.51044  0.0041811
  0.549604  0.0038624
  0.588769 0.00355957
  0.627934 0.00327679
  0.667099 0.00300128
  0.706264 0.00273443
  0.745429 0.00248147
  0.784593 0.00224813
  0.823758 0.00204233
  0.862923 0.00186763
  0.902088 0.00172815
  0.941253  0.0016339
  0.980418 0.00159066
   1.01958 0.00159466
   1.05875 0.00164534
   1.09791 0.00173935
   1.13708 0.00186952
   1.17624 0.00203657
   1.21541 0.00223559
   1.25457 0.00246551
   1.29374 0.00271282
    1.3329 0.00297191
   1.37207 0.00324773
   1.41123  0.0035295
    1.4504 0.00381978
   1.48956  0.0041273
   1.52873 0.00444833
   1.56789 0.00478128
   1.60706 0.00513896
   1.64622 0.00554528
   1.68539 0.00601199
   1.72107 0.00652142
   1.75152 0.00701899
   1.77865 0.00754846
   1.80281 0.00814081
   1.82434 0.00881315
   1.84353 0.00959228
   1.86062  0.0104896
   1.87584  0.0115123
   1.88941  0.0126682
    1.9015  0.0139518
   1.91226  0.0153409
   1.92186  0.0167931
    1.9304  0.0182439
   1.93802  0.0196094
    1.9448  0.0207935
   1.95084  0.0216987
   1.95623  0.0222391
   1.96103  0.0223537
    1.9653  0.0220144
   1.96911  0.0212294
    1.9725  0.0200435
   1.97552  0.0185338
   1.97822  0.0168006
   1.98061  0.0149527
   1.98275  0.0130919
   1.98466  0.0113003
   1.98635 0.00963512
   1.98786 0.00812931
   1.98921 0.00679637
   1.99041 0.00563584
   1.99148 0.00463897
   1.99243  0.0037893
   1.99333 0.00304906
   1.99421 0.00238652
    1.9951  0.0018014
     1.996 0.00129645
   1.99689 0.000873067
   1.99777 0.000534398
   1.99867 0.000269076
   1.99956 0.00013984
         2          0
