         0          0
  0.000445 1.94794e-09
  0.001335 2.41453e-08
  0.002225 1.21939e-07
  0.003115 3.4958e-07
  0.004005 7.88441e-07
  0.004895 1.51261e-06
  0.005785 2.59516e-06
  0.006675 4.10341e-06
0.00756867 6.12878e-06
0.00852095 8.90179e-06
0.00958982 1.28192e-05
 0.0107896 1.83459e-05
 0.0121362 2.60458e-05
 0.0136477 3.66456e-05
 0.0153442 5.10623e-05
 0.0172484 7.04287e-05
 0.0193858 9.61142e-05
 0.0217849 0.000129736
 0.0244777 0.000173152
 0.0275001 0.000228428
 0.0308926 0.000297764
 0.0347005 0.000383384
 0.0389746 0.000487334
 0.0437719 0.000611209
 0.0491566 0.000755819
 0.0552005 0.000920841
 0.0619844 0.00110449
 0.0695988 0.00130328
 0.0781455 0.00151183
 0.0877386 0.00172292
 0.0985062 0.00192782
  0.110592 0.00211716
  0.124158 0.00228175
  0.139384 0.00241437
  0.156474 0.00251038
  0.175657 0.00256824
  0.197189   0.002588
  0.221357 0.00257264
  0.248483 0.00252823
  0.278931 0.00246237
  0.314615  0.0023718
   0.35378 0.00227668
  0.392945 0.00218188
   0.43211 0.00208887
  0.471275 0.00199276
   0.51044 0.00189554
  0.549604 0.00179935
  0.588769 0.00170634
  0.627934 0.00161793
  0.667099 0.00153445
  0.706264 0.00145656
  0.745429 0.00138347
  0.784593 0.00131644
  0.823758 0.00125769
  0.862923 0.00120958
  0.902088 0.00117236
  0.941253 0.00114641
  0.980418 0.00113226
   1.01958 0.00113022
   1.05875 0.00114163
   1.09791 0.00116604
   1.13708  0.0012017
   1.17624 0.00124898
   1.21541 0.00130667
   1.25457 0.00137274
   1.29374 0.00144755
    1.3329 0.00153043
   1.37207 0.00161943
   1.41123 0.00171407
    1.4504 0.00180878
   1.48956 0.00190209
   1.52873 0.00199388
   1.56789 0.00208538
   1.60706 0.00217528
   1.64622 0.00226728
   1.68539 0.00236163
   1.72107 0.00245497
   1.75152 0.00252462
   1.77865 0.00257199
   1.80281 0.00258867
   1.82434 0.00256981
   1.84353 0.00251183
   1.86062 0.00241507
   1.87584 0.00228145
   1.88941 0.00211624
    1.9015  0.0019271
   1.91226   0.001723
   1.92186 0.00151295
    1.9304 0.00130529
   1.93802 0.00110706
    1.9448 0.000923643
   1.95084 0.000758605
   1.95623 0.000613813
   1.96103 0.000489659
    1.9653 0.00038538
   1.96911 0.000299417
    1.9725 0.000229753
   1.97552 0.000174189
   1.97822 0.000130529
   1.98061 9.67099e-05
   1.98275 7.08697e-05
   1.98466 5.13849e-05
   1.98635 3.6879e-05
   1.98786 2.62129e-05
   1.98921 1.84645e-05
   1.99041 1.29027e-05
   1.99148 8.9601e-06
   1.99243 6.16918e-06
   1.99333 4.13059e-06
   1.99421 2.61241e-06
    1.9951 1.52268e-06
     1.996 7.93684e-07
   1.99689 3.51887e-07
   1.99777 1.22721e-07
   1.99867 2.42968e-08
   1.99956 1.96038e-09
         2          0
