         0          0
  0.000445 1.17107e-07
  0.001335  2.012e-07
  0.002225 3.87763e-07
  0.003115 6.24623e-07
  0.004005 9.2251e-07
  0.004895 1.27882e-06
  0.005785 1.6922e-06
  0.006675 2.16018e-06
0.00756867 2.68281e-06
0.00852095 3.28242e-06
0.00958982 3.98659e-06
 0.0107896 4.81123e-06
 0.0121362 5.77277e-06
 0.0136477 6.89358e-06
 0.0153442 8.20663e-06
 0.0172484 9.7611e-06
 0.0193858 1.16214e-05
 0.0217849 1.38524e-05
 0.0244777 1.64834e-05
 0.0275001 1.94335e-05
 0.0308926 2.2454e-05
 0.0347005 2.51753e-05
 0.0389746 2.71361e-05
 0.0437719 2.78243e-05
 0.0491566 2.67441e-05
 0.0552005  2.355e-05
 0.0619844 1.80562e-05
 0.0695988 1.03434e-05
 0.0781455 9.98786e-07
 0.0877386 -8.61567e-06
 0.0985062 -1.64862e-05
  0.110592 -2.17091e-05
  0.124158 -2.52721e-05
  0.139384 -2.73619e-05
  0.156474 -2.80568e-05
  0.175657 -2.85773e-05
  0.197189 -2.60573e-05
  0.221357 -1.93389e-05
  0.248483 -8.15571e-06
  0.278931 5.92787e-06
  0.314615 2.00153e-05
   0.35378 2.71849e-05
  0.392945 2.54414e-05
   0.43211 2.61297e-05
  0.471275 2.66014e-05
   0.51044 2.42183e-05
  0.549604 1.70588e-05
  0.588769 1.1931e-05
  0.627934 6.72564e-06
  0.667099 3.50493e-06
  0.706264 -1.46863e-06
  0.745429 -7.85242e-06
  0.784593 -1.18249e-05
  0.823758 -1.40787e-05
  0.862923 -1.39326e-05
  0.902088 -1.12714e-05
  0.941253 -8.37343e-06
  0.980418 -5.4858e-06
   1.01958 -2.56631e-06
   1.05875 -1.42412e-07
   1.09791 1.40195e-06
   1.13708 2.34583e-06
   1.17624 2.73421e-06
   1.21541 6.47717e-06
   1.25457 1.08393e-05
   1.29374 8.90412e-06
    1.3329 4.60213e-06
   1.37207 5.99069e-07
   1.41123 2.27159e-06
    1.4504 9.16465e-06
   1.48956 1.93585e-05
   1.52873 2.3111e-05
   1.56789 2.54934e-05
   1.60706 2.65703e-05
   1.64622 2.4182e-05
   1.68539 1.49726e-05
   1.72107 -1.21669e-06
   1.75152 -1.4228e-05
   1.77865 -1.17818e-05
   1.80281 -5.60355e-06
   1.82434 -7.19558e-06
   1.84353 -9.24743e-06
   1.86062 -7.78532e-06
   1.87584 -5.31055e-06
   1.88941 -4.47513e-06
    1.9015 -5.43364e-06
   1.91226 -7.24891e-06
   1.92186 -1.00299e-05
    1.9304 -1.2924e-05
   1.93802 -1.48871e-05
    1.9448 -1.58295e-05
   1.95084 -1.60212e-05
   1.95623 -1.57976e-05
   1.96103 -1.53747e-05
    1.9653 -1.47293e-05
   1.96911 -1.38357e-05
    1.9725 -1.2748e-05
   1.97552 -1.15338e-05
   1.97822 -1.02708e-05
   1.98061 -9.00434e-06
   1.98275 -7.75492e-06
   1.98466 -6.54986e-06
   1.98635 -5.42418e-06
   1.98786 -4.4082e-06
   1.98921 -3.52056e-06
   1.99041 -2.76683e-06
   1.99148 -2.14263e-06
   1.99243 -1.63452e-06
   1.99333 -1.21713e-06
   1.99421 -8.71514e-07
    1.9951 -5.94921e-07
     1.996 -3.84024e-07
   1.99689 -2.32373e-07
   1.99777 -1.32297e-07
   1.99867 -6.67685e-08
   1.99956 -5.39968e-08
         2          0
