         0          0
  0.000445 -2.38235e-10
  0.001335 -7.38537e-10
  0.002225 -2.40446e-09
  0.003115 -5.1625e-09
  0.004005 -9.57092e-09
  0.004895 -1.59387e-08
  0.005785 -2.45761e-08
  0.006675 -3.57081e-08
0.00756867 -4.96453e-08
0.00852095 -6.73558e-08
0.00958982 -9.0335e-08
 0.0107896 -1.19694e-07
 0.0121362 -1.5616e-07
 0.0136477 -2.0011e-07
 0.0153442 -2.51571e-07
 0.0172484 -3.10623e-07
 0.0193858 -3.78062e-07
 0.0217849 -4.55711e-07
 0.0244777 -5.45987e-07
 0.0275001 -6.50296e-07
 0.0308926 -7.6797e-07
 0.0347005 -9.00359e-07
 0.0389746 -1.05294e-06
 0.0437719 -1.22581e-06
 0.0491566 -1.3992e-06
 0.0552005 -1.52982e-06
 0.0619844 -1.57429e-06
 0.0695988 -1.51076e-06
 0.0781455 -1.31844e-06
 0.0877386 -9.66954e-07
 0.0985062 -4.65683e-07
  0.110592 5.65287e-08
  0.124158 4.76826e-07
  0.139384  5.791e-07
  0.156474 4.45159e-07
  0.175657 -2.45867e-08
  0.197189 -6.92787e-07
  0.221357 -1.36142e-06
  0.248483 -1.99721e-06
  0.278931 -1.879e-06
  0.314615 -1.52672e-06
   0.35378 -6.86723e-07
  0.392945 -1.34177e-06
   0.43211 -2.58188e-06
  0.471275 -3.33558e-06
   0.51044 -2.40667e-06
  0.549604 -2.23672e-06
  0.588769 -1.73353e-06
  0.627934 -1.01365e-06
  0.667099 -9.39714e-07
  0.706264 -5.52329e-07
  0.745429 -3.78616e-07
  0.784593 1.26027e-07
  0.823758 4.62237e-07
  0.862923 5.57298e-07
  0.902088 6.58274e-07
  0.941253 8.93467e-07
  0.980418 6.91821e-07
   1.01958 5.38358e-07
   1.05875 5.81282e-07
   1.09791 8.71547e-07
   1.13708 9.17437e-07
   1.17624 6.8159e-07
   1.21541 3.90774e-07
   1.25457 9.94463e-08
   1.29374 -1.00887e-06
    1.3329 -1.88336e-06
   1.37207 -2.39286e-06
   1.41123 -2.79702e-06
    1.4504 -2.75371e-06
   1.48956 -2.0892e-06
   1.52873 -1.51154e-06
   1.56789 -1.54582e-06
   1.60706 -2.17973e-06
   1.64622 -3.45632e-06
   1.68539 -3.47511e-06
   1.72107 -4.84726e-06
   1.75152 -5.55946e-06
   1.77865 -6.18776e-06
   1.80281 -6.35991e-06
   1.82434 -6.59536e-06
   1.84353 -6.68918e-06
   1.86062 -6.65226e-06
   1.87584 -6.34673e-06
   1.88941 -5.87595e-06
    1.9015 -5.36853e-06
   1.91226 -4.92489e-06
   1.92186 -4.56962e-06
    1.9304 -4.25167e-06
   1.93802 -3.92229e-06
    1.9448 -3.60337e-06
   1.95084 -3.33525e-06
   1.95623 -3.11759e-06
   1.96103 -2.91988e-06
    1.9653 -2.70745e-06
   1.96911 -2.46065e-06
    1.9725 -2.17995e-06
   1.97552 -1.88232e-06
   1.97822 -1.5881e-06
   1.98061 -1.31139e-06
   1.98275 -1.06098e-06
   1.98466 -8.42173e-07
   1.98635 -6.57042e-07
   1.98786 -5.04914e-07
   1.98921 -3.83034e-07
   1.99041 -2.87444e-07
   1.99148 -2.13854e-07
   1.99243 -1.57634e-07
   1.99333 -1.13548e-07
   1.99421 -7.8252e-08
    1.9951 -5.07494e-08
     1.996 -3.03644e-08
   1.99689 -1.62302e-08
   1.99777 -7.39778e-09
   1.99867 -2.31564e-09
   1.99956 -3.6577e-10
         2          0
