         0          0
  0.000445 2.23005e-05
  0.001335 6.09073e-05
  0.002225 0.000125832
  0.003115 0.000205286
  0.004005 0.000296649
  0.004895 0.000396626
  0.005785 0.000502749
  0.006675 0.000613035
0.00756867 0.000726488
0.00852095 0.000847368
0.00958982 0.000979405
 0.0107896 0.00112252
 0.0121362  0.0012763
 0.0136477  0.0014404
 0.0153442 0.00161463
 0.0172484 0.00179909
 0.0193858  0.0019942
 0.0217849 0.00220052
 0.0244777 0.00241825
 0.0275001  0.0026466
 0.0308926 0.00288298
 0.0347005  0.0031225
 0.0389746 0.00335793
 0.0437719 0.00358053
 0.0491566 0.00378151
 0.0552005 0.00395378
 0.0619844 0.00409341
 0.0695988 0.00420049
 0.0781455 0.00427867
 0.0877386  0.0043333
 0.0985062 0.00436822
  0.110592 0.00438408
  0.124158 0.00437837
  0.139384 0.00434457
  0.156474  0.0042778
  0.175657 0.00417896
  0.197189 0.00405567
  0.221357 0.00391978
  0.248483 0.00376643
  0.278931 0.00358767
  0.314615 0.00337309
   0.35378 0.00316551
  0.392945 0.00297089
   0.43211 0.00278254
  0.471275 0.00259601
   0.51044 0.00241104
  0.549604 0.00223165
  0.588769 0.00205803
  0.627934 0.00189594
  0.667099 0.00174417
  0.706264 0.00160427
  0.745429 0.00147794
  0.784593 0.00136615
  0.823758 0.00126952
  0.862923 0.00119029
  0.902088 0.00113125
  0.941253 0.00109041
  0.980418 0.00106481
   1.01958 0.00106059
   1.05875 0.00108133
   1.09791 0.00112179
   1.13708 0.00118237
   1.17624 0.00126206
   1.21541  0.0013566
   1.25457 0.00146746
   1.29374 0.00159372
    1.3329 0.00174085
   1.37207 0.00190515
   1.41123 0.00207627
    1.4504 0.00224703
   1.48956 0.00241638
   1.52873 0.00259096
   1.56789 0.00277177
   1.60706 0.00296919
   1.64622 0.00318499
   1.68539 0.00340244
   1.72107 0.00362414
   1.75152 0.00380746
   1.77865 0.00396021
   1.80281 0.00408866
   1.82434  0.0041985
   1.84353 0.00428348
   1.86062 0.00433872
   1.87584 0.00436698
   1.88941  0.0043745
    1.9015 0.00436278
   1.91226 0.00433061
   1.92186 0.00427628
    1.9304 0.00419617
   1.93802 0.00408643
    1.9448 0.00394468
   1.95084 0.00377146
   1.95623 0.00357066
   1.96103 0.00334911
    1.9653 0.00311527
   1.96911 0.00287754
    1.9725 0.00264291
   1.97552  0.0024161
   1.97822 0.00219962
   1.98061 0.00199425
   1.98275 0.00179982
   1.98466 0.00161583
   1.98635  0.0014419
   1.98786 0.00127798
   1.98921 0.00112427
   1.99041 0.00098116
   1.99148 0.000849065
   1.99243 0.000728084
   1.99333 0.000614497
   1.99421 0.000504042
    1.9951 0.00039772
     1.996 0.000297522
   1.99689 0.000205927
   1.99777 0.000126245
   1.99867 6.11153e-05
   1.99956 2.23717e-05
         2          0
