         0   -56.0704
  0.000445   -38.3794
  0.001335   -22.4821
  0.002225   -24.0575
  0.003115   -23.8471
  0.004005   -23.8282
  0.004895   -23.7689
  0.005785   -23.6931
  0.006675   -23.6003
0.00756867   -23.3192
0.00852095   -22.6699
0.00958982   -21.8379
 0.0107896   -20.9854
 0.0121362   -20.0825
 0.0136477   -19.1199
 0.0153442   -18.0851
 0.0172484   -16.9671
 0.0193858   -15.7585
 0.0217849   -14.4604
 0.0244777   -13.0855
 0.0275001   -11.6606
 0.0308926   -10.2242
 0.0347005   -8.82015
 0.0389746   -7.49057
 0.0437719   -6.26983
 0.0491566   -5.18137
 0.0552005   -4.23701
 0.0619844   -3.43802
 0.0695988    -2.7774
 0.0781455   -2.24224
 0.0877386   -1.81647
 0.0985062   -1.48292
  0.110592   -1.22452
  0.124158   -1.02564
  0.139384    -0.8728
  0.156474  -0.755164
  0.175657  -0.664624
  0.197189  -0.593716
  0.221357  -0.537268
  0.248483  -0.493393
  0.278931  -0.459959
  0.314615  -0.431351
   0.35378  -0.399952
  0.392945  -0.367307
   0.43211  -0.339033
  0.471275  -0.315634
   0.51044  -0.294913
  0.549604  -0.273056
  0.588769  -0.249695
  0.627934  -0.228016
  0.667099  -0.208566
  0.706264  -0.189376
  0.745429  -0.168755
  0.784593   -0.14637
  0.823758  -0.122945
  0.862923 -0.0984195
  0.902088 -0.0726175
  0.941253 -0.0451206
  0.980418 -0.0163849
   1.01958  0.0132086
   1.05875   0.042827
   1.09791  0.0705607
   1.13708  0.0969933
   1.17624   0.122998
   1.21541   0.147996
   1.25457   0.171278
   1.29374   0.192929
    1.3329   0.213932
   1.37207   0.234385
   1.41123   0.253753
    1.4504   0.272091
   1.48956   0.291445
   1.52873   0.314046
   1.56789     0.3385
   1.60706   0.365086
   1.64622   0.395896
   1.68539   0.428519
   1.72107   0.461633
   1.75152   0.498224
   1.77865   0.542044
   1.80281   0.597385
   1.82434   0.667463
   1.84353   0.755764
   1.86062   0.869803
   1.87584    1.01964
   1.88941    1.21652
    1.9015    1.47392
   1.91226    1.80748
   1.92186    2.23345
    1.9304    2.76813
   1.93802    3.42751
    1.9448    4.22523
   1.95084    5.16908
   1.95623    6.25795
   1.96103    7.47997
    1.9653    8.81172
   1.96911    10.2189
    1.9725    11.6591
   1.97552    13.0882
   1.97822    14.4673
   1.98061    15.7695
   1.98275    16.9817
   1.98466     18.103
   1.98635    19.1406
   1.98786    20.1058
   1.98921    21.0109
   1.99041    21.8655
   1.99148    22.6994
   1.99243    23.3502
   1.99333    23.6321
   1.99421    23.7252
    1.9951    23.8013
     1.996    23.8609
   1.99689    23.8799
   1.99777    24.0908
   1.99867    22.5111
   1.99956    38.4472
         2    56.1817
