         0  -0.959952
  0.000445  -0.637136
  0.001335  -0.478127
  0.002225  -0.721722
  0.003115   -0.89004
  0.004005   -1.04135
  0.004895   -1.15902
  0.005785   -1.24007
  0.006675   -1.28196
0.00756867   -1.27394
0.00852095   -1.19909
0.00958982   -1.05755
 0.0107896  -0.852922
 0.0121362  -0.577812
 0.0136477  -0.229574
 0.0153442   0.189146
 0.0172484   0.667665
 0.0193858    1.18509
 0.0217849    1.71047
 0.0244777     2.2069
 0.0275001    2.63919
 0.0308926    2.98185
 0.0347005    3.22343
 0.0389746    3.36541
 0.0437719     3.4176
 0.0491566    3.39314
 0.0552005    3.30526
 0.0619844    3.16587
 0.0695988    2.98534
 0.0781455    2.77332
 0.0877386     2.5394
 0.0985062    2.29308
  0.110592    2.04345
  0.124158    1.79847
  0.139384    1.56494
  0.156474    1.34826
  0.175657    1.15249
  0.197189   0.979449
  0.221357   0.829992
  0.248483   0.703361
  0.278931   0.597108
  0.314615   0.503156
   0.35378    0.42955
  0.392945   0.371992
   0.43211   0.326355
  0.471275   0.288015
   0.51044   0.254373
  0.549604   0.224203
  0.588769   0.196893
  0.627934   0.172461
  0.667099   0.150658
  0.706264   0.130217
  0.745429   0.110436
  0.784593  0.0915225
  0.823758  0.0737616
  0.862923  0.0572579
  0.902088  0.0409506
  0.941253   0.024684
  0.980418 0.00837914
   1.01958 -0.00800458
   1.05875 -0.0242414
   1.09791 -0.0406903
   1.13708 -0.0573171
   1.17624 -0.0746075
   1.21541 -0.0925864
   1.25457  -0.111703
   1.29374  -0.131526
    1.3329  -0.152477
   1.37207  -0.175438
   1.41123  -0.199998
    1.4504  -0.226766
   1.48956  -0.256169
   1.52873  -0.289098
   1.56789  -0.326608
   1.60706  -0.371022
   1.64622  -0.425725
   1.68539  -0.496604
   1.72107  -0.589737
   1.75152  -0.697834
   1.77865  -0.826761
   1.80281  -0.978119
   1.82434   -1.15299
   1.84353   -1.35063
   1.86062   -1.56913
   1.87584   -1.80517
   1.88941   -2.05268
    1.9015   -2.30468
   1.91226   -2.55334
   1.92186   -2.78968
    1.9304   -3.00453
   1.93802   -3.18846
    1.9448   -3.33129
   1.95084   -3.42194
   1.95623   -3.44828
   1.96103   -3.39704
    1.9653   -3.25484
   1.96911   -3.01165
    1.9725   -2.66598
   1.97552   -2.22966
   1.97822   -1.72875
   1.98061   -1.19896
   1.98275  -0.677536
   1.98466  -0.195564
   1.98635   0.226086
   1.98786   0.576774
   1.98921   0.853899
   1.99041    1.06014
   1.99148    1.20291
   1.99243    1.27861
   1.99333    1.28712
   1.99421    1.24542
    1.9951     1.1643
     1.996    1.04631
   1.99689   0.894423
   1.99777   0.725355
   1.99867   0.480609
   1.99956   0.640029
         2   0.964112
