         0    706.924
  0.000445    251.584
  0.001335    40.8807
  0.002225    54.9097
  0.003115    52.9372
  0.004005    53.1862
  0.004895    53.0789
  0.005785    52.8914
  0.006675    52.5911
0.00756867    51.1879
0.00852095    47.7503
0.00958982    43.5623
 0.0107896    39.5816
 0.0121362    35.7012
 0.0136477    32.0049
 0.0153442    28.6124
 0.0172484       25.7
 0.0193858    23.4552
 0.0217849    21.9916
 0.0244777    21.2577
 0.0275001    21.0103
 0.0308926    20.8895
 0.0347005      20.56
 0.0389746    19.8234
 0.0437719    18.6408
 0.0491566    17.0888
 0.0552005    15.2973
 0.0619844    13.4028
 0.0695988    11.5222
 0.0781455    9.74966
 0.0877386    8.15323
 0.0985062    6.76243
  0.110592    5.57285
  0.124158    4.57073
  0.139384     3.7488
  0.156474    3.07976
  0.175657    2.53364
  0.197189    2.08632
  0.221357    1.71128
  0.248483    1.40271
  0.278931    1.12909
  0.314615   0.914507
   0.35378   0.782903
  0.392945   0.696926
   0.43211   0.624198
  0.471275    0.56484
   0.51044    0.51315
  0.549604   0.468009
  0.588769   0.428139
  0.627934   0.391634
  0.667099   0.361813
  0.706264   0.336755
  0.745429   0.313835
  0.784593   0.293535
  0.823758     0.2764
  0.862923   0.262587
  0.902088   0.252691
  0.941253   0.245497
  0.980418   0.240987
   1.01958   0.240349
   1.05875   0.243563
   1.09791   0.250458
   1.13708   0.261258
   1.17624    0.27541
   1.21541   0.292889
   1.25457   0.311279
   1.29374   0.334323
    1.3329   0.363391
   1.37207   0.393147
   1.41123   0.427532
    1.4504   0.466518
   1.48956   0.510094
   1.52873   0.560804
   1.56789   0.621694
   1.60706   0.694779
   1.64622   0.783933
   1.68539   0.922741
   1.72107    1.14276
   1.75152    1.41367
   1.77865    1.71681
   1.80281    2.08771
   1.82434    2.54422
   1.84353    3.09421
   1.86062    3.76558
   1.87584     4.5869
   1.88941    5.58444
    1.9015    6.78049
   1.91226    8.18016
   1.92186    9.77142
    1.9304     11.525
   1.93802    13.3861
    1.9448    15.2685
   1.95084    17.0567
   1.95623    18.6151
   1.96103    19.8113
    1.9653    20.5619
   1.96911     20.899
    1.9725    21.0194
   1.97552    21.2592
   1.97822    21.9805
   1.98061    23.4315
   1.98275    25.6665
   1.98466    28.5716
   1.98635    31.9579
   1.98786     35.648
   1.98921    39.5218
   1.99041    43.4954
   1.99148    47.6759
   1.99243     51.107
   1.99333    52.5063
   1.99421    52.8044
    1.9951    52.9904
     1.996    53.0967
   1.99689    52.8479
   1.99777    54.8193
   1.99867    40.8104
   1.99956    251.286
         2    706.178
