         0    112.593
  0.000445    49.4019
  0.001335    13.5813
  0.002225    13.6067
  0.003115    11.6099
  0.004005    10.1333
  0.004895    8.87012
  0.005785    7.82179
  0.006675    6.96854
0.00756867    6.19776
0.00852095    5.40784
0.00958982    4.72251
 0.0107896    4.24376
 0.0121362    3.96699
 0.0136477    3.89166
 0.0153442    4.00605
 0.0172484    4.28408
 0.0193858    4.68262
 0.0217849    5.14435
 0.0244777    5.60675
 0.0275001    6.01396
 0.0308926    6.32668
 0.0347005    6.52697
 0.0389746    6.61575
 0.0437719    6.60527
 0.0491566     6.5114
 0.0552005    6.34944
 0.0619844    6.13168
 0.0695988    5.86484
 0.0781455    5.55204
 0.0877386    5.19569
 0.0985062    4.80479
  0.110592    4.39184
  0.124158    3.96344
  0.139384    3.53223
  0.156474    3.11341
  0.175657    2.71556
  0.197189    2.34235
  0.221357    1.99606
  0.248483    1.69172
  0.278931    1.41438
  0.314615    1.17276
   0.35378    1.00747
  0.392945   0.895567
   0.43211   0.803249
  0.471275   0.720504
   0.51044   0.646094
  0.549604   0.581108
  0.588769   0.524323
  0.627934   0.474579
  0.667099   0.431206
  0.706264   0.392515
  0.745429     0.3573
  0.784593    0.32413
  0.823758   0.295047
  0.862923    0.27235
  0.902088    0.25532
  0.941253   0.243408
  0.980418   0.238165
   1.01958   0.238291
   1.05875   0.244097
   1.09791   0.255934
   1.13708   0.272354
   1.17624   0.293236
   1.21541    0.32102
   1.25457   0.353259
   1.29374   0.390858
    1.3329    0.43296
   1.37207   0.480052
   1.41123   0.534071
    1.4504   0.592929
   1.48956   0.655252
   1.52873    0.72378
   1.56789   0.804507
   1.60706   0.895995
   1.64622    1.00456
   1.68539    1.16837
   1.72107    1.40871
   1.75152    1.69195
   1.77865    2.00273
   1.80281    2.35435
   1.82434    2.73501
   1.84353    3.13775
   1.86062    3.55757
   1.87584    3.98504
   1.88941    4.40693
    1.9015    4.81635
   1.91226    5.20736
   1.92186    5.56965
    1.9304    5.89483
   1.93802    6.17525
    1.9448    6.40351
   1.95084    6.57121
   1.95623    6.66751
   1.96103    6.67781
    1.9653    6.58543
   1.96911    6.37763
    1.9725    6.05469
   1.97552    5.63681
   1.97822    5.16477
   1.98061    4.69528
   1.98275    4.29109
   1.98466    4.00917
   1.98635    3.89212
   1.98786    3.96575
   1.98921    4.24171
   1.99041    4.72056
   1.99148    5.40692
   1.99243    6.19878
   1.99333    6.97236
   1.99421    7.82947
    1.9951     8.8829
     1.996    10.1526
   1.99689    11.6373
   1.99777    13.6447
   1.99867    13.6258
   1.99956    49.5669
         2    112.952
