         0   -58.5879
  0.000445   -39.8488
  0.001335   -23.0214
  0.002225   -24.6978
  0.003115   -24.4708
  0.004005   -24.4489
  0.004895   -24.3822
  0.005785   -24.2967
  0.006675   -24.1917
0.00756867   -23.8903
0.00852095   -23.2063
0.00958982   -22.3308
 0.0107896   -21.4308
 0.0121362   -20.4748
 0.0136477   -19.4527
 0.0153442   -18.3512
 0.0172484   -17.1594
 0.0193858   -15.8716
 0.0217849   -14.4925
 0.0244777   -13.0407
 0.0275001     -11.55
 0.0308926   -10.0649
 0.0347005   -8.63006
 0.0389746   -7.28532
 0.0437719   -6.06656
 0.0491566   -4.99664
 0.0552005   -4.07957
 0.0619844    -3.3062
 0.0695988    -2.6586
 0.0781455   -2.12816
 0.0877386   -1.71736
 0.0985062   -1.40887
  0.110592   -1.17321
  0.124158  -0.996645
  0.139384  -0.864983
  0.156474  -0.751946
  0.175657  -0.659219
  0.197189  -0.608308
  0.221357  -0.584967
  0.248483  -0.548792
  0.278931  -0.487016
  0.314615  -0.423143
   0.35378  -0.383564
  0.392945  -0.357985
   0.43211  -0.327629
  0.471275  -0.299031
   0.51044  -0.274105
  0.549604  -0.254541
  0.588769  -0.236882
  0.627934  -0.227284
  0.667099  -0.230444
  0.706264  -0.220895
  0.745429  -0.195815
  0.784593   -0.17379
  0.823758  -0.146706
  0.862923  -0.113343
  0.902088 -0.0840474
  0.941253 -0.0522904
  0.980418 -0.0229015
   1.01958 -0.000925096
   1.05875  0.0225633
   1.09791  0.0502287
   1.13708  0.0738676
   1.17624  0.0931054
   1.21541    0.12316
   1.25457   0.167065
   1.29374   0.219119
    1.3329   0.274993
   1.37207   0.314285
   1.41123   0.319773
    1.4504   0.309978
   1.48956   0.309018
   1.52873   0.325044
   1.56789   0.352498
   1.60706    0.37499
   1.64622   0.416189
   1.68539   0.465386
   1.72107   0.492417
   1.75152   0.530425
   1.77865   0.572694
   1.80281   0.602764
   1.82434   0.654655
   1.84353   0.742898
   1.86062   0.861281
   1.87584    1.02074
   1.88941     1.2312
    1.9015    1.49418
   1.91226    1.82128
   1.92186    2.23887
    1.9304    2.77025
   1.93802    3.42322
    1.9448    4.20553
   1.95084    5.13222
   1.95623    6.20934
   1.96103    7.42381
    1.9653    8.74732
   1.96911    10.1407
    1.9725     11.558
   1.97552    12.9559
   1.97822    14.3018
   1.98061    15.5741
   1.98275     16.761
   1.98466    17.8607
   1.98635    18.8797
   1.98786    19.8287
   1.98921    20.7194
   1.99041     21.561
   1.99148    22.3823
   1.99243    23.0238
   1.99333    23.3032
   1.99421    23.3974
    1.9951    23.4748
     1.996    23.5361
   1.99689    23.5578
   1.99777     23.765
   1.99867    22.2325
   1.99956    37.7601
         2    55.0335
