         0   0.066645
  0.000445   0.066645
  0.001335   0.132038
  0.002225   0.264704
  0.003115   0.435051
  0.004005   0.648243
  0.004895    0.90258
  0.005785    1.19715
  0.006675    1.53032
0.00756867    1.90194
0.00852095    2.32768
0.00958982    2.82613
 0.0107896    3.40477
 0.0121362    4.06684
 0.0136477    4.81098
 0.0153442    5.62805
 0.0172484    6.49823
 0.0193858    7.38865
 0.0217849    8.25323
 0.0244777    9.03636
 0.0275001    9.68057
 0.0308926    10.1367
 0.0347005    10.3726
 0.0389746    10.3777
 0.0437719    10.1623
 0.0491566    9.75309
 0.0552005    9.18697
 0.0619844    8.50596
 0.0695988    7.75319
 0.0781455     6.9688
 0.0877386    6.18679
 0.0985062    5.43409
  0.110592    4.73147
  0.124158    4.09282
  0.139384    3.52488
  0.156474    3.02853
  0.175657    2.59802
  0.197189    2.22621
  0.221357    1.90628
  0.248483     1.6312
  0.278931    1.39342
  0.314615    1.17909
   0.35378    1.01595
  0.392945   0.890805
   0.43211   0.789477
  0.471275   0.704816
   0.51044    0.63164
  0.549604   0.567946
  0.588769   0.510317
  0.627934   0.459557
  0.667099   0.415385
  0.706264    0.37654
  0.745429   0.342328
  0.784593   0.312695
  0.823758   0.287091
  0.862923   0.265868
  0.902088   0.249581
  0.941253    0.23849
  0.980418   0.232898
   1.01958   0.233089
   1.05875   0.239119
   1.09791   0.250658
   1.13708   0.266861
   1.17624   0.288012
   1.21541   0.313868
   1.25457   0.344326
   1.29374   0.379636
    1.3329   0.420302
   1.37207   0.466258
   1.41123   0.516476
    1.4504   0.572171
   1.48956   0.634582
   1.52873   0.705522
   1.56789   0.788675
   1.60706   0.887952
   1.64622    1.01261
   1.68539     1.1787
   1.72107    1.39659
   1.75152    1.63483
   1.77865    1.90919
   1.80281    2.23176
   1.82434    2.60687
   1.84353    3.03997
   1.86062    3.53659
   1.87584    4.10158
   1.88941    4.73602
    1.9015    5.43467
   1.91226    6.18489
   1.92186    6.96689
    1.9304    7.75314
   1.93802    8.50877
    1.9448    9.19373
   1.95084     9.7652
   1.95623    10.1806
   1.96103    10.4023
    1.9653    10.4028
   1.96911    10.1712
    1.9725    9.71758
   1.97552    9.07381
   1.97822    8.28936
   1.98061    7.42215
   1.98275    6.52833
   1.98466    5.65444
   1.98635    4.83368
   1.98786    4.08609
   1.98921     3.4209
   1.99041    2.83953
   1.99148    2.33872
   1.99243    1.91095
   1.99333    1.53757
   1.99421    1.20282
    1.9951   0.906855
     1.996   0.651315
   1.99689   0.437114
   1.99777    0.26596
   1.99867   0.132663
   1.99956  0.0669537
         2  0.0669537
