         0 1.28314e-05
 0.0002225 1.28314e-05
 0.0006675 0.000141232
 0.0011125 0.000521937
 0.0015575 0.00123395
 0.0020025 0.00229845
 0.0024475 0.00370667
 0.0028925 0.00543026
 0.0033375 0.00742747
 0.0037825 0.00964981
 0.0042275  0.0120472
 0.0046725  0.0145714
 0.0051175   0.017178
 0.0055625  0.0198271
 0.0060075  0.0224843
 0.0064525  0.0251213
 0.0068975  0.0277172
 0.0073476  0.0302863
0.00781612  0.0328852
0.00831203  0.0355337
0.00883694  0.0382059
0.00939255  0.0408734
0.00998065  0.0435074
 0.0106031  0.0460767
  0.011262  0.0485479
 0.0119594   0.050886
 0.0126977  0.0530552
  0.013479  0.0550196
 0.0143061  0.0567447
 0.0151815  0.0581982
 0.0161082  0.0593512
  0.017089  0.0601795
 0.0181271  0.0606642
  0.019226  0.0607927
 0.0203891  0.0605588
 0.0216203  0.0599629
 0.0229234  0.0590118
 0.0243028  0.0577186
 0.0257628  0.0561018
 0.0273082  0.0541852
  0.028944  0.0519965
 0.0306754  0.0495664
 0.0325081  0.0469281
 0.0344479  0.0441172
 0.0365012  0.0411712
 0.0386746  0.0381294
  0.040975  0.0350337
   0.04341  0.0319288
 0.0459873  0.0288597
 0.0487154  0.0258667
  0.051603  0.0229843
 0.0546595  0.0202424
 0.0578947  0.0176668
 0.0613191  0.0152755
 0.0649437  0.0130798
 0.0687803   0.011087
 0.0728413 0.00929672
 0.0771397 0.00770031
 0.0816895 0.00628544
 0.0865054 0.00503866
 0.0916029 0.00394877
 0.0969985 0.00300505
   0.10271 0.00219765
  0.108755 0.00151153
  0.115153 0.000925783
  0.121926 0.000421608
  0.129095 -1.37666e-05
  0.136683 -0.000392384
  0.144715 -0.000717788
  0.153216 -0.000989518
  0.162214 -0.00122216
  0.171739 -0.00143587
  0.181821 -0.00164162
  0.192492 -0.00185706
  0.203788 -0.0020879
  0.215744 -0.00228177
  0.228399 -0.0024139
  0.241794 -0.0025316
  0.255972 -0.00263044
   0.27098 -0.00271436
  0.286865 -0.00301503
  0.304824 -0.00282272
  0.324407 -0.00233377
  0.343989 -0.00226876
  0.363571 -0.00226536
  0.383154 -0.00228188
  0.402736 -0.00228518
  0.422319 -0.00230534
  0.441901 -0.00233959
  0.461484 -0.00235821
  0.481066 -0.00238994
  0.500648 -0.00241998
  0.520231 -0.00245793
  0.539813 -0.00248648
  0.559396 -0.00250396
  0.578978 -0.00250828
   0.59856 -0.0024936
  0.618143 -0.00247378
  0.637725 -0.00242171
  0.657308 -0.00234635
   0.67689 -0.0022774
  0.696473 -0.00222343
  0.716055 -0.00216245
  0.735637 -0.0020917
   0.75522 -0.00200631
  0.774802 -0.00189006
  0.794385 -0.00174231
  0.813967 -0.00159262
  0.833549 -0.00145086
  0.853132 -0.00130607
  0.872714 -0.00115106
  0.892297 -0.000975356
  0.911879 -0.000786505
  0.931462 -0.000596706
  0.951044 -0.000403836
  0.970626 -0.000207382
  0.990209 -1.64441e-05
   1.00979 0.000164862
   1.02937 0.000346697
   1.04896 0.000524734
   1.06854 0.000700016
   1.08812 0.000879858
    1.1077 0.00104919
   1.12729  0.0011961
   1.14687 0.00132792
   1.16645 0.00144683
   1.18603  0.0015553
   1.20562 0.00165756
    1.2252 0.00176082
   1.24478 0.00185459
   1.26436 0.00195191
   1.28395 0.00206764
   1.30353 0.00217472
   1.32311 0.00225201
   1.34269  0.0023144
   1.36228 0.00236677
   1.38186 0.00241046
   1.40144 0.00243624
   1.42102 0.00246363
   1.44061 0.00249946
   1.46019 0.00253572
   1.47977 0.00252708
   1.49935 0.00249389
   1.51894 0.00244136
   1.53852 0.00237472
    1.5581 0.00233881
   1.57768 0.00229614
   1.59727 0.00226677
   1.61685 0.00226897
   1.63643 0.00227166
   1.65601  0.0022751
    1.6756 0.00236452
   1.69518  0.0028871
   1.71314  0.0030544
   1.72902   0.002745
   1.74403 0.00269541
   1.75821 0.00261985
    1.7716 0.00249392
   1.78426 0.00236236
   1.79621 0.00220115
   1.80751 0.00201322
   1.81818 0.00180344
   1.82826 0.00157167
   1.83779 0.00131762
   1.84679 0.00103881
   1.85529 0.000728502
   1.86332 0.000384816
   1.87091 9.56284e-06
   1.87808 -0.000407915
   1.88485 -0.000893518
   1.89125 -0.00147903
   1.89729 -0.00218064
     1.903 -0.00300892
    1.9084 -0.00397189
    1.9135 -0.00507646
   1.91831 -0.00633248
   1.92286 -0.00775733
   1.92716 -0.00936999
   1.93122   -0.01118
   1.93506 -0.0131881
   1.93868 -0.0153937
   1.94211 -0.0177932
   1.94534 -0.0203761
    1.9484 -0.0231267
   1.95129 -0.0260231
   1.95401 -0.0290354
   1.95659 -0.0321264
   1.95903 -0.0352527
   1.96133 -0.0383691
    1.9635 -0.0414315
   1.96555 -0.0443974
   1.96749 -0.0472263
   1.96933 -0.0498795
   1.97106  -0.052321
   1.97269 -0.0545177
   1.97424 -0.0564397
    1.9757   -0.05806
   1.97708 -0.0593551
   1.97838 -0.0603062
   1.97961 -0.0608999
   1.98077 -0.0611291
   1.98187 -0.0609935
   1.98291 -0.0604996
   1.98389 -0.0596606
   1.98482 -0.0584957
   1.98569 -0.0570296
   1.98652 -0.0552916
    1.9873 -0.0533141
   1.98804 -0.0511319
   1.98874 -0.0487807
    1.9894 -0.0462965
   1.99002 -0.0437142
   1.99061 -0.0410674
   1.99116 -0.0383871
   1.99169 -0.0357024
   1.99218 -0.0330415
   1.99265 -0.0304304
    1.9931 -0.0278493
   1.99355 -0.0252412
   1.99399 -0.0225917
   1.99444 -0.0199219
   1.99488 -0.0172601
   1.99533 -0.0146411
   1.99577 -0.0121048
   1.99622 -0.00969586
   1.99666 -0.00746284
   1.99711 -0.00545604
   1.99755 -0.00372421
     1.998 -0.00230928
   1.99844 -0.00123973
   1.99889 -0.000524361
   1.99933 -0.000141879
   1.99978 -1.28886e-05
         2 -1.28886e-05
