         0    2818.58
 0.0002225    2818.58
 0.0006675    2792.16
 0.0011125    2767.47
 0.0015575    2740.03
 0.0020025     2706.1
 0.0024475    2662.77
 0.0028925    2607.97
 0.0033375    2540.71
 0.0037825    2461.04
 0.0042275       2370
 0.0046725    2269.38
 0.0051175    2161.47
 0.0055625    2048.77
 0.0060075    1933.75
 0.0064525    1818.66
 0.0068975    1705.36
 0.0073476    1593.94
0.00781612    1482.61
0.00831203    1371.28
0.00883694    1261.53
0.00939255    1154.78
0.00998065    1052.26
 0.0106031     954.99
  0.011262    863.751
 0.0119594    779.062
 0.0126977    701.199
  0.013479    630.217
 0.0143061    565.983
 0.0151815    508.214
 0.0161082     456.52
  0.017089    410.442
 0.0181271    369.482
  0.019226    333.133
 0.0203891    300.897
 0.0216203    272.302
 0.0229234    246.913
 0.0243028    224.334
 0.0257628    204.211
 0.0273082    186.236
  0.028944    170.139
 0.0306754    155.688
 0.0325081    142.684
 0.0344479    130.955
 0.0365012    120.354
 0.0386746    110.751
  0.040975    102.037
   0.04341    94.1142
 0.0459873    86.9033
 0.0487154    80.3347
  0.051603    74.3412
 0.0546595    68.8609
 0.0578947    63.8398
 0.0613191    59.2376
 0.0649437    55.0171
 0.0687803    51.1366
 0.0728413    47.5606
 0.0771397     44.264
 0.0816895    41.2209
 0.0865054    38.4078
 0.0916029    35.8085
 0.0969985    33.4076
   0.10271    31.1839
  0.108755    29.1199
  0.115153     27.201
  0.121926    25.4171
  0.129095    23.7618
  0.136683    22.2249
  0.144715    20.7943
  0.153216    19.4604
  0.162214    18.2188
  0.171739    17.0625
  0.181821    15.9817
  0.192492     14.971
  0.203788    14.0226
  0.215744    13.1284
  0.228399    12.2875
  0.241794    11.4938
  0.255972    10.7451
   0.27098    10.0535
  0.286865    9.31741
  0.304824    8.53314
  0.324407    7.93987
  0.343989    7.49035
  0.363571    7.08039
  0.383154    6.71105
  0.402736    6.37059
  0.422319    6.05378
  0.441901    5.75727
  0.461484    5.47616
  0.481066    5.20182
  0.500648    4.93406
  0.520231    4.68185
  0.539813     4.4468
  0.559396    4.22281
  0.578978    4.00702
   0.59856    3.79805
  0.618143    3.59464
  0.637725    3.39917
  0.657308     3.2144
   0.67689    3.03831
  0.696473    2.87148
  0.716055    2.71405
  0.735637    2.56343
   0.75522    2.42218
  0.774802    2.28837
  0.794385    2.16406
  0.813967    2.04995
  0.833549    1.94634
  0.853132    1.85367
  0.872714    1.77264
  0.892297    1.70269
  0.911879    1.64293
  0.931462    1.59374
  0.951044    1.55653
  0.970626    1.53126
  0.990209    1.51877
   1.00979    1.51886
   1.02937    1.53147
   1.04896    1.55686
   1.06854    1.59417
   1.08812    1.64344
    1.1077    1.70549
   1.12729    1.77825
   1.14687    1.85975
   1.16645    1.95184
   1.18603     2.0541
   1.20562    2.16497
    1.2252    2.28424
   1.24478    2.41239
   1.26436    2.54911
   1.28395    2.69406
   1.30353    2.84872
   1.32311    3.01367
   1.34269     3.1883
   1.36228    3.36986
   1.38186    3.56171
   1.40144    3.76344
   1.42102    3.97323
   1.44061    4.19116
   1.46019    4.42037
   1.47977    4.66021
   1.49935     4.9103
   1.51894    5.17393
   1.53852    5.44882
    1.5581    5.74037
   1.57768    6.04974
   1.59727    6.37752
   1.61685    6.72721
   1.63643    7.11288
   1.65601    7.54186
    1.6756    8.01589
   1.69518    8.63825
   1.71314    9.45333
   1.72902    10.2152
   1.74403    10.9245
   1.75821    11.6852
    1.7716    12.4871
   1.78426    13.3379
   1.79621    14.2386
   1.80751    15.1917
   1.81818    16.2052
   1.82826    17.2865
   1.83779    18.4437
   1.84679    19.6838
   1.85529    21.0141
   1.86332    22.4425
   1.87091     23.975
   1.87808    25.6199
   1.88485    27.3917
   1.89125    29.3031
   1.89729    31.3681
     1.903    33.5977
    1.9084    36.0026
    1.9135    38.6026
   1.91831     41.417
   1.92286    44.4625
   1.92716    47.7586
   1.93122    51.3299
   1.93506    55.2042
   1.93868    59.4153
   1.94211    63.9998
   1.94534    68.9962
    1.9484    74.4525
   1.95129    80.4236
   1.95401    86.9675
   1.95659    94.1443
   1.95903    102.024
   1.96133    110.694
    1.9635    120.251
   1.96555    130.799
   1.96749    142.465
   1.96933    155.397
   1.97106    169.766
   1.97269    185.774
   1.97424    203.655
    1.9757    223.677
   1.97708    246.148
   1.97838    271.419
   1.97961    299.883
   1.98077    331.974
   1.98187    368.161
   1.98291     408.94
   1.98389    454.817
   1.98482    506.288
   1.98569    563.812
   1.98652     627.78
    1.9873    698.476
   1.98804    776.034
   1.98874    860.406
    1.9894     951.32
   1.99002    1048.26
   1.99061    1150.46
   1.99116    1256.91
   1.99169    1366.37
   1.99218    1477.45
   1.99265    1588.55
    1.9931    1699.78
   1.99355    1812.93
   1.99399     1927.9
   1.99444    2042.86
   1.99488    2155.53
   1.99533    2263.45
   1.99577    2364.12
   1.99622    2455.24
   1.99666       2535
   1.99711    2602.36
   1.99755    2657.25
     1.998    2700.67
   1.99844    2734.68
   1.99889     2762.2
   1.99933    2786.98
   1.99978    2813.49
         2    2813.49
