         0    47.7495
 0.0002225    47.7495
 0.0006675    47.7124
 0.0011125    47.6403
 0.0015575    47.5101
 0.0020025       47.3
 0.0024475    46.9901
 0.0028925    46.5646
 0.0033375    46.0124
 0.0037825    45.3278
 0.0042275    44.5115
 0.0046725    43.5691
 0.0051175    42.5116
 0.0055625    41.3532
 0.0060075    40.1111
 0.0064525    38.8034
 0.0068975    37.4478
 0.0073476    36.0438
0.00781612     34.565
0.00831203    33.0015
0.00883694     31.369
0.00939255     29.684
0.00998065    27.9649
 0.0106031    26.2312
  0.011262    24.5021
 0.0119594    22.7962
 0.0126977    21.1305
  0.013479    19.5199
 0.0143061    17.9767
 0.0151815    16.5104
 0.0161082    15.1279
  0.017089    13.8332
 0.0181271    12.6281
  0.019226    11.5124
 0.0203891    10.4841
 0.0216203    9.54018
 0.0229234     8.6765
 0.0243028    7.88847
 0.0257628    7.17117
 0.0273082     6.5196
  0.028944    5.92883
 0.0306754    5.39405
 0.0325081    4.91069
 0.0344479    4.47443
 0.0365012    4.08126
 0.0386746    3.72739
  0.040975    3.40925
   0.04341    3.12349
 0.0459873    2.86712
 0.0487154    2.63739
  0.051603    2.43169
 0.0546595    2.24754
 0.0578947    2.08261
 0.0613191    1.93489
 0.0649437    1.80251
 0.0687803    1.68366
 0.0728413    1.57676
 0.0771397    1.48046
 0.0816895    1.39343
 0.0865054    1.31451
 0.0916029    1.24284
 0.0969985    1.17766
   0.10271    1.11812
  0.108755     1.0631
  0.115153    1.01171
  0.121926   0.963735
  0.129095   0.919014
  0.136683   0.877097
  0.144715    0.83761
  0.153216   0.800515
  0.162214   0.765977
  0.171739   0.733914
  0.181821   0.703567
  0.192492   0.674597
  0.203788   0.646937
  0.215744   0.620305
  0.228399   0.595408
  0.241794   0.572076
  0.255972   0.550491
   0.27098   0.530613
  0.286865   0.512197
  0.304824   0.494318
  0.324407   0.476127
  0.343989   0.458571
  0.363571   0.441125
  0.383154   0.424834
  0.402736   0.410058
  0.422319   0.396133
  0.441901   0.383835
  0.461484   0.371645
  0.481066   0.358179
  0.500648    0.34462
  0.520231   0.331964
  0.539813   0.320627
  0.559396   0.310196
  0.578978   0.299908
   0.59856   0.289815
  0.618143   0.279761
  0.637725   0.269585
  0.657308   0.259086
   0.67689   0.248079
  0.696473   0.236839
  0.716055   0.225371
  0.735637   0.213304
   0.75522   0.200985
  0.774802   0.188821
  0.794385   0.175882
  0.813967   0.161694
  0.833549   0.146958
  0.853132   0.132252
  0.872714    0.11718
  0.892297   0.101493
  0.911879  0.0851365
  0.931462  0.0677787
  0.951044  0.0493474
  0.970626  0.0298773
  0.990209  0.0101933
   1.00979 -0.00892463
   1.02937 -0.0273172
   1.04896 -0.0452243
   1.06854 -0.0629008
   1.08812 -0.0804271
    1.1077 -0.0978179
   1.12729  -0.114283
   1.14687  -0.129572
   1.16645   -0.14467
   1.18603   -0.15932
   1.20562  -0.172488
    1.2252   -0.18489
   1.24478  -0.197237
   1.26436  -0.209223
   1.28395  -0.220731
   1.30353  -0.231722
   1.32311  -0.242296
   1.34269  -0.252772
   1.36228  -0.263193
   1.38186  -0.273476
   1.40144   -0.28389
   1.42102  -0.294826
   1.44061  -0.305836
   1.46019  -0.317155
   1.47977  -0.329346
   1.49935  -0.341593
   1.51894  -0.353785
   1.53852  -0.366999
    1.5581  -0.381743
   1.57768  -0.398177
   1.59727  -0.414905
   1.61685  -0.430667
   1.63643  -0.447851
   1.65601  -0.467911
    1.6756  -0.489842
   1.69518  -0.510769
   1.71314  -0.528835
   1.72902  -0.547765
   1.74403  -0.568111
   1.75821  -0.589084
    1.7716  -0.611925
   1.78426  -0.635689
   1.79621  -0.660266
   1.80751  -0.686289
   1.81818  -0.714301
   1.82826  -0.744315
   1.83779  -0.776372
   1.84679  -0.810861
   1.85529  -0.847739
   1.86332  -0.886512
   1.87091  -0.927136
   1.87808  -0.970149
   1.88485   -1.01633
   1.89125   -1.06635
   1.89729     -1.121
     1.903   -1.18089
    1.9084   -1.24639
    1.9135   -1.31821
   1.91831   -1.39733
   1.92286   -1.48463
   1.92716   -1.58108
   1.93122    -1.6878
   1.93506   -1.80615
   1.93868    -1.9378
   1.94211   -2.08448
   1.94534   -2.24808
    1.9484   -2.43082
   1.95129   -2.63502
   1.95401   -2.86308
   1.95659   -3.11758
   1.95903   -3.40138
   1.96133   -3.71758
    1.9635   -4.06948
   1.96555    -4.4606
   1.96749   -4.89476
   1.96933   -5.37603
   1.97106   -5.90874
   1.97269   -6.49746
   1.97424   -7.14697
    1.9757   -7.86223
   1.97708   -8.64821
   1.97838    -9.5098
   1.97961   -10.4516
   1.98077   -11.4775
   1.98187   -12.5908
   1.98291   -13.7933
   1.98389   -15.0853
   1.98482   -16.4651
   1.98569   -17.9285
   1.98652    -19.469
    1.9873    -21.077
   1.98804   -22.7402
   1.98874    -24.444
    1.9894   -26.1712
   1.99002   -27.9035
   1.99061   -29.6215
   1.99116   -31.3059
   1.99169   -32.9383
   1.99218   -34.5018
   1.99265   -35.9811
    1.9931   -37.3859
   1.99355   -38.7425
   1.99399   -40.0515
   1.99444   -41.2951
   1.99488   -42.4551
   1.99533   -43.5143
   1.99577   -44.4583
   1.99622   -45.2762
   1.99666   -45.9621
   1.99711   -46.5156
   1.99755    -46.942
     1.998   -47.2525
   1.99844   -47.4631
   1.99889   -47.5936
   1.99933   -47.6658
   1.99978    -47.703
         2    -47.703
