         0 -1.04852e-05
 0.0002225 -1.04852e-05
 0.0006675 -0.00014204
 0.0011125 -0.000524699
 0.0015575 -0.00122086
 0.0020025 -0.00226879
 0.0024475 -0.00366404
 0.0028925 -0.00537875
 0.0033375 -0.0073733
 0.0037825 -0.00960133
 0.0042275 -0.0120137
 0.0046725 -0.0145617
 0.0051175 -0.0171988
 0.0055625  -0.019882
 0.0060075 -0.0225729
 0.0064525  -0.025241
 0.0068975 -0.0278693
 0.0073476 -0.0304735
0.00781612 -0.0331002
0.00831203 -0.0357661
0.00883694 -0.0384478
0.00939255 -0.0411164
0.00998065  -0.043742
 0.0106031 -0.0462941
  0.011262 -0.0487407
 0.0119594  -0.051049
 0.0126977 -0.0531854
  0.013479 -0.0551163
 0.0143061 -0.0568093
 0.0151815 -0.0582335
 0.0161082 -0.0593612
  0.017089 -0.0601688
 0.0181271 -0.0606375
  0.019226 -0.0607543
 0.0203891 -0.0605126
 0.0216203 -0.0599119
 0.0229234 -0.0589586
 0.0243028 -0.0576649
 0.0257628 -0.0560493
 0.0273082 -0.0541349
  0.028944 -0.0519491
 0.0306754 -0.0495223
 0.0325081 -0.0468875
 0.0344479 -0.0440803
 0.0365012  -0.041138
 0.0386746 -0.0381001
  0.040975 -0.0350086
   0.04341  -0.031908
 0.0459873 -0.0288425
 0.0487154 -0.0258523
  0.051603 -0.0229727
 0.0546595 -0.0202338
 0.0578947 -0.0176603
 0.0613191 -0.0152706
 0.0649437 -0.0130763
 0.0687803 -0.0110842
 0.0728413 -0.00929389
 0.0771397 -0.00769724
 0.0816895 -0.00628215
 0.0865054 -0.00503547
 0.0916029 -0.00394568
 0.0969985 -0.00300238
   0.10271 -0.00219477
  0.108755 -0.00150867
  0.115153 -0.00092338
  0.121926 -0.000419502
  0.129095 1.61976e-05
  0.136683 0.000394765
  0.144715 0.000719606
  0.153216 0.000991633
  0.162214 0.00122393
  0.171739 0.00143771
  0.181821 0.00164262
  0.192492 0.00186071
  0.203788 0.00208763
  0.215744 0.00228495
  0.228399 0.00241204
  0.241794 0.00253947
  0.255972 0.00262307
   0.27098 0.00272839
  0.286865 0.00301033
  0.304824 0.00282107
  0.324407 0.00234328
  0.343989 0.00226154
  0.363571 0.00227037
  0.383154 0.00227722
  0.402736 0.00228737
  0.422319 0.00230285
  0.441901 0.00233907
  0.461484 0.00235695
  0.481066 0.00238922
  0.500648 0.00241906
  0.520231 0.00245714
  0.539813 0.00248534
  0.559396 0.00250353
  0.578978 0.00250695
   0.59856 0.00249358
  0.618143 0.00247252
  0.637725 0.00242142
  0.657308 0.00234555
   0.67689  0.0022773
  0.696473 0.00222254
  0.716055 0.00216223
  0.735637 0.00209105
   0.75522 0.00200609
  0.774802 0.00188948
  0.794385 0.00174212
  0.813967 0.00159232
  0.833549 0.00145046
  0.853132 0.00130586
  0.872714 0.00115072
  0.892297 0.000975053
  0.911879 0.000786599
  0.931462 0.000596607
  0.951044 0.000403754
  0.970626 0.000207242
  0.990209 1.65863e-05
   1.00979 -0.000164996
   1.02937 -0.000346619
   1.04896 -0.000524711
   1.06854 -0.000699969
   1.08812 -0.000879649
    1.1077 -0.0010489
   1.12729 -0.00119598
   1.14687 -0.0013274
   1.16645 -0.00144679
   1.18603 -0.00155468
   1.20562 -0.0016576
    1.2252 -0.0017602
   1.24478 -0.00185439
   1.26436 -0.00195133
   1.28395 -0.0020673
   1.30353 -0.00217379
   1.32311 -0.00225197
   1.34269 -0.00231314
   1.36228 -0.00236677
   1.38186 -0.00240895
   1.40144 -0.00243638
   1.42102 -0.00246221
   1.44061 -0.00249987
   1.46019 -0.00253413
   1.47977 -0.00252683
   1.49935 -0.00249254
   1.51894 -0.00244031
   1.53852 -0.00237401
    1.5581 -0.00233878
   1.57768 -0.00229334
   1.59727 -0.00226876
   1.61685 -0.00226425
   1.63643 -0.00227647
   1.65601 -0.00226794
    1.6756 -0.00237481
   1.69518 -0.00288372
   1.71314 -0.00305065
   1.72902 -0.00275897
   1.74403 -0.00268872
   1.75821 -0.00262768
    1.7716 -0.00249264
   1.78426 -0.00236582
   1.79621 -0.00220172
   1.80751 -0.0020157
   1.81818 -0.00180444
   1.82826 -0.00157346
   1.83779 -0.00131883
   1.84679 -0.00103991
   1.85529 -0.000730127
   1.86332 -0.000387611
   1.87091 -1.27377e-05
   1.87808 0.000405405
   1.88485 0.000891906
   1.89125 0.00147635
   1.89729 0.00217772
     1.903 0.00300582
    1.9084 0.00396864
    1.9135 0.00507306
   1.91831 0.00632957
   1.92286 0.00775496
   1.92716 0.00936715
   1.93122  0.0111762
   1.93506  0.0131838
   1.93868  0.0153887
   1.94211  0.0177865
   1.94534  0.0203674
    1.9484   0.023116
   1.95129  0.0260099
   1.95401  0.0290189
   1.95659  0.0321058
   1.95903   0.035228
   1.96133  0.0383403
    1.9635  0.0413987
   1.96555  0.0443608
   1.96749  0.0471859
   1.96933  0.0498355
   1.97106  0.0522737
   1.97269  0.0544675
   1.97424  0.0563872
    1.9757  0.0580063
   1.97708  0.0593017
   1.97838   0.060255
   1.97961  0.0608536
   1.98077  0.0610908
   1.98187   0.060967
   1.98291  0.0604893
   1.98389   0.059671
   1.98482  0.0585313
   1.98569  0.0570944
   1.98652  0.0553884
    1.9873  0.0534444
   1.98804   0.051295
   1.98874  0.0489738
    1.9894  0.0465143
   1.99002  0.0439495
   1.99061  0.0413111
   1.99116  0.0386298
   1.99169  0.0359356
   1.99218  0.0332573
   1.99265  0.0306184
    1.9931  0.0280021
   1.99355  0.0253614
   1.99399  0.0226807
   1.99444  0.0199769
   1.99488  0.0172808
   1.99533   0.014631
   1.99577  0.0120708
   1.99622 0.00964677
   1.99666 0.00740804
   1.99711 0.00540394
   1.99755 0.00368107
     1.998 0.00227924
   1.99844 0.00122643
   1.99889 0.000527061
   1.99933 0.000142661
   1.99978 1.05248e-05
         2 1.05248e-05
