         0          0
 0.0002225 6.65981e-11
 0.0006675 1.4196e-09
 0.0011125 5.48578e-09
 0.0015575 1.27911e-08
 0.0020025 2.32551e-08
 0.0024475 3.66498e-08
 0.0028925 5.27581e-08
 0.0033375 7.14507e-08
 0.0037825 9.27603e-08
 0.0042275 1.16846e-07
 0.0046725 1.4397e-07
 0.0051175 1.74068e-07
 0.0055625 2.07873e-07
 0.0060075 2.44929e-07
 0.0064525 2.8553e-07
 0.0068975 3.30558e-07
 0.0073476 3.85734e-07
0.00781612 4.59215e-07
0.00831203 5.46625e-07
0.00883694 6.47991e-07
0.00939255 7.65943e-07
0.00998065 9.02517e-07
 0.0106031 1.05818e-06
  0.011262 1.23494e-06
 0.0119594 1.43031e-06
 0.0126977 1.64488e-06
  0.013479 1.88041e-06
 0.0143061 2.13703e-06
 0.0151815 2.41536e-06
 0.0161082 2.70864e-06
  0.017089 3.02401e-06
 0.0181271 3.35818e-06
  0.019226 3.70176e-06
 0.0203891 4.05798e-06
 0.0216203 4.42519e-06
 0.0229234 4.81233e-06
 0.0243028 5.2139e-06
 0.0257628 5.61468e-06
 0.0273082 6.02269e-06
  0.028944 6.41332e-06
 0.0306754 6.7928e-06
 0.0325081 7.19068e-06
 0.0344479 7.59304e-06
 0.0365012 7.98345e-06
 0.0386746 8.36299e-06
  0.040975 8.71817e-06
   0.04341 9.07508e-06
 0.0459873 9.4279e-06
 0.0487154 9.77927e-06
  0.051603 1.00942e-05
 0.0546595 1.04152e-05
 0.0578947 1.07195e-05
 0.0613191 1.10302e-05
 0.0649437 1.13281e-05
 0.0687803 1.16048e-05
 0.0728413 1.18855e-05
 0.0771397 1.21352e-05
 0.0816895 1.23929e-05
 0.0865054 1.26477e-05
 0.0916029 1.29029e-05
 0.0969985 1.31752e-05
   0.10271 1.34247e-05
  0.108755 1.36001e-05
  0.115153 1.38284e-05
  0.121926 1.40794e-05
  0.129095 1.42503e-05
  0.136683 1.44388e-05
  0.144715 1.46473e-05
  0.153216 1.48442e-05
  0.162214 1.4962e-05
  0.171739 1.51477e-05
  0.181821 1.52816e-05
  0.192492 1.54621e-05
  0.203788 1.56206e-05
  0.215744 1.58522e-05
  0.228399 1.59513e-05
  0.241794 1.59762e-05
  0.255972 1.60931e-05
   0.27098 1.6336e-05
  0.286865 1.63681e-05
  0.304824 1.78594e-05
  0.324407 1.73248e-05
  0.343989 1.69777e-05
  0.363571 1.65128e-05
  0.383154 1.59963e-05
  0.402736 1.54033e-05
  0.422319  1.494e-05
  0.441901 1.45932e-05
  0.461484 1.42032e-05
  0.481066 1.38412e-05
  0.500648   1.35e-05
  0.520231 1.31918e-05
  0.539813 1.28273e-05
  0.559396 1.24425e-05
  0.578978 1.21124e-05
   0.59856 1.1821e-05
  0.618143 1.14903e-05
  0.637725 1.12167e-05
  0.657308 1.09689e-05
   0.67689 1.05916e-05
  0.696473 1.02505e-05
  0.716055 9.96623e-06
  0.735637 9.68444e-06
   0.75522 9.46722e-06
  0.774802 9.24447e-06
  0.794385 9.06607e-06
  0.813967 8.8159e-06
  0.833549 8.62185e-06
  0.853132 8.43915e-06
  0.872714 8.29559e-06
  0.892297 8.11627e-06
  0.911879 7.96408e-06
  0.931462 7.81385e-06
  0.951044 7.77148e-06
  0.970626 7.69632e-06
  0.990209 7.61344e-06
   1.00979 7.56286e-06
   1.02937 7.59849e-06
   1.04896 7.64524e-06
   1.06854 7.7089e-06
   1.08812 7.76317e-06
    1.1077 7.79735e-06
   1.12729 7.91258e-06
   1.14687 8.04257e-06
   1.16645 8.17642e-06
   1.18603 8.35551e-06
   1.20562 8.56283e-06
    1.2252 8.77059e-06
   1.24478 9.02786e-06
   1.26436 9.27587e-06
   1.28395 9.57174e-06
   1.30353 9.80764e-06
   1.32311 1.01177e-05
   1.34269 1.03902e-05
   1.36228 1.07487e-05
   1.38186 1.10355e-05
   1.40144   1.13e-05
   1.42102 1.15886e-05
   1.44061 1.19562e-05
   1.46019 1.23102e-05
   1.47977 1.26917e-05
   1.49935 1.30433e-05
   1.51894 1.34554e-05
   1.53852 1.38463e-05
    1.5581 1.43961e-05
   1.57768 1.48452e-05
   1.59727 1.53336e-05
   1.61685 1.58258e-05
   1.63643 1.63297e-05
   1.65601 1.70314e-05
    1.6756 1.76587e-05
   1.69518 1.82555e-05
   1.71314 1.6735e-05
   1.72902 1.66836e-05
   1.74403 1.65188e-05
   1.75821 1.63378e-05
    1.7716 1.61749e-05
   1.78426 1.59912e-05
   1.79621 1.58709e-05
   1.80751 1.57035e-05
   1.81818 1.55393e-05
   1.82826 1.53145e-05
   1.83779 1.50913e-05
   1.84679 1.48614e-05
   1.85529 1.46506e-05
   1.86332 1.44157e-05
   1.87091 1.42907e-05
   1.87808 1.4105e-05
   1.88485 1.38734e-05
   1.89125 1.36412e-05
   1.89729 1.33915e-05
     1.903 1.31957e-05
    1.9084 1.29579e-05
    1.9135 1.27093e-05
   1.91831 1.24985e-05
   1.92286 1.22345e-05
   1.92716 1.19846e-05
   1.93122 1.17299e-05
   1.93506 1.14626e-05
   1.93868 1.11803e-05
   1.94211 1.08642e-05
   1.94534 1.05382e-05
    1.9484 1.02008e-05
   1.95129 9.86801e-06
   1.95401 9.53726e-06
   1.95659  9.174e-06
   1.95903 8.80289e-06
   1.96133 8.41891e-06
    1.9635 8.04391e-06
   1.96555 7.6526e-06
   1.96749 7.26339e-06
   1.96933 6.86595e-06
   1.97106 6.46164e-06
   1.97269 6.06215e-06
   1.97424 5.67005e-06
    1.9757 5.27616e-06
   1.97708 4.89368e-06
   1.97838 4.51277e-06
   1.97961 4.14234e-06
   1.98077 3.78331e-06
   1.98187 3.43347e-06
   1.98291 3.10284e-06
   1.98389 2.78343e-06
   1.98482 2.48203e-06
   1.98569 2.19968e-06
   1.98652 1.93569e-06
    1.9873 1.69276e-06
   1.98804 1.46983e-06
   1.98874 1.26744e-06
    1.9894 1.08777e-06
   1.99002 9.27254e-07
   1.99061 7.86117e-07
   1.99116 6.6297e-07
   1.99169 5.58088e-07
   1.99218 4.68978e-07
   1.99265 3.92949e-07
    1.9931 3.36002e-07
   1.99355 2.89377e-07
   1.99399 2.46786e-07
   1.99444 2.08661e-07
   1.99488 1.74114e-07
   1.99533 1.43606e-07
   1.99577 1.16482e-07
   1.99622 9.24916e-08
   1.99666 7.12375e-08
   1.99711 5.25647e-08
   1.99755 3.64602e-08
     1.998 2.30833e-08
   1.99844 1.26644e-08
   1.99889 5.4142e-09
   1.99933 1.39719e-09
   1.99978 6.51805e-11
         2          0
