         0          0
 0.0002225 2.56675e-08
 0.0006675 9.58007e-08
 0.0011125 2.01338e-07
 0.0015575 3.18034e-07
 0.0020025 4.24984e-07
 0.0024475 5.17074e-07
 0.0028925 5.90582e-07
 0.0033375 6.4552e-07
 0.0037825 6.85888e-07
 0.0042275 7.13387e-07
 0.0046725 7.33289e-07
 0.0051175 7.45183e-07
 0.0055625 7.56251e-07
 0.0060075 7.62457e-07
 0.0064525 7.7097e-07
 0.0068975 7.77397e-07
 0.0073476 7.98358e-07
0.00781612 8.38808e-07
0.00831203 8.84714e-07
0.00883694 9.35329e-07
0.00939255 9.92282e-07
0.00998065 1.05488e-06
 0.0106031 1.12327e-06
  0.011262  1.197e-06
 0.0119594 1.27522e-06
 0.0126977 1.35759e-06
  0.013479 1.44269e-06
 0.0143061 1.5295e-06
 0.0151815 1.61771e-06
 0.0161082 1.70625e-06
  0.017089 1.79364e-06
 0.0181271 1.88015e-06
  0.019226 1.96552e-06
 0.0203891 2.04898e-06
 0.0216203 2.13026e-06
 0.0229234 2.21043e-06
 0.0243028 2.28907e-06
 0.0257628 2.36633e-06
 0.0273082 2.44287e-06
  0.028944 2.51709e-06
 0.0306754 2.59108e-06
 0.0325081 2.66334e-06
 0.0344479 2.73459e-06
 0.0365012 2.80635e-06
 0.0386746 2.87398e-06
  0.040975 2.94317e-06
   0.04341 3.00938e-06
 0.0459873 3.07722e-06
 0.0487154 3.14132e-06
  0.051603 3.20719e-06
 0.0546595 3.27162e-06
 0.0578947 3.33435e-06
 0.0613191 3.39879e-06
 0.0649437 3.45996e-06
 0.0687803 3.52476e-06
 0.0728413 3.58389e-06
 0.0771397 3.64782e-06
 0.0816895 3.70722e-06
 0.0865054 3.77023e-06
 0.0916029 3.8298e-06
 0.0969985 3.89174e-06
   0.10271 3.95272e-06
  0.108755 4.01744e-06
  0.115153 4.07853e-06
  0.121926 4.14438e-06
  0.129095 4.20929e-06
  0.136683 4.27725e-06
  0.144715 4.34255e-06
  0.153216 4.41198e-06
  0.162214 4.48285e-06
  0.171739 4.55365e-06
  0.181821 4.62641e-06
  0.192492 4.7004e-06
  0.203788 4.77466e-06
  0.215744 4.84857e-06
  0.228399 4.92346e-06
  0.241794 4.99677e-06
  0.255972 5.07181e-06
   0.27098 5.15059e-06
  0.286865 5.21083e-06
  0.304824 5.6971e-06
  0.324407 5.55415e-06
  0.343989 5.43127e-06
  0.363571 5.30944e-06
  0.383154 5.19006e-06
  0.402736 5.07348e-06
  0.422319 4.9653e-06
  0.441901 4.86414e-06
  0.461484 4.76029e-06
  0.481066 4.65265e-06
  0.500648 4.55036e-06
  0.520231 4.45018e-06
  0.539813 4.35211e-06
  0.559396 4.25496e-06
  0.578978 4.16052e-06
   0.59856 4.06389e-06
  0.618143 3.96935e-06
  0.637725 3.87903e-06
  0.657308 3.78533e-06
   0.67689 3.70158e-06
  0.696473 3.61956e-06
  0.716055 3.5393e-06
  0.735637 3.46509e-06
   0.75522 3.39262e-06
  0.774802 3.32437e-06
  0.794385 3.2601e-06
  0.813967 3.19991e-06
  0.833549 3.14418e-06
  0.853132 3.08997e-06
  0.872714 3.0438e-06
  0.892297 3.00583e-06
  0.911879 2.96966e-06
  0.931462 2.95031e-06
  0.951044 2.92667e-06
  0.970626 2.91822e-06
  0.990209 2.90834e-06
   1.00979 2.91509e-06
   1.02937 2.91664e-06
   1.04896 2.9415e-06
   1.06854 2.96123e-06
   1.08812 2.9972e-06
    1.1077 3.02674e-06
   1.12729 3.07105e-06
   1.14687 3.11952e-06
   1.16645 3.17013e-06
   1.18603 3.22983e-06
   1.20562 3.28989e-06
    1.2252 3.36357e-06
   1.24478 3.42963e-06
   1.26436 3.50611e-06
   1.28395 3.57836e-06
   1.30353 3.65869e-06
   1.32311 3.73163e-06
   1.34269 3.82335e-06
   1.36228 3.90566e-06
   1.38186 3.99746e-06
   1.40144 4.08572e-06
   1.42102 4.18261e-06
   1.44061 4.26847e-06
   1.46019 4.36712e-06
   1.47977 4.4576e-06
   1.49935 4.56264e-06
   1.51894 4.65389e-06
   1.53852 4.75607e-06
    1.5581 4.85941e-06
   1.57768 4.97164e-06
   1.59727 5.07407e-06
   1.61685 5.19709e-06
   1.63643 5.31161e-06
   1.65601 5.44577e-06
    1.6756 5.55977e-06
   1.69518 5.71221e-06
   1.71314 5.21334e-06
   1.72902 5.15983e-06
   1.74403 5.07686e-06
   1.75821 5.0052e-06
    1.7716 4.92923e-06
   1.78426 4.85626e-06
   1.79621 4.78083e-06
   1.80751 4.70541e-06
   1.81818 4.63175e-06
   1.82826 4.55886e-06
   1.83779 4.48807e-06
   1.84679 4.41863e-06
   1.85529 4.34618e-06
   1.86332 4.27998e-06
   1.87091 4.21126e-06
   1.87808 4.14838e-06
   1.88485 4.0825e-06
   1.89125 4.0204e-06
   1.89729 3.95504e-06
     1.903 3.89424e-06
    1.9084 3.83071e-06
    1.9135 3.77161e-06
   1.91831 3.70852e-06
   1.92286 3.64739e-06
   1.92716 3.58478e-06
   1.93122 3.52367e-06
   1.93506 3.46094e-06
   1.93868 3.39844e-06
   1.94211 3.33487e-06
   1.94534 3.27209e-06
    1.9484 3.20629e-06
   1.95129 3.14112e-06
   1.95401 3.0768e-06
   1.95659 3.00841e-06
   1.95903 2.94364e-06
   1.96133 2.87312e-06
    1.9635 2.80575e-06
   1.96555 2.73365e-06
   1.96749 2.66478e-06
   1.96933 2.58937e-06
   1.97106 2.51896e-06
   1.97269 2.44212e-06
   1.97424 2.36837e-06
    1.9757 2.29004e-06
   1.97708 2.2119e-06
   1.97838 2.13175e-06
   1.97961 2.05026e-06
   1.98077 1.96635e-06
   1.98187 1.88166e-06
   1.98291 1.79506e-06
   1.98389 1.70794e-06
   1.98482 1.61909e-06
   1.98569 1.53167e-06
   1.98652 1.44417e-06
    1.9873 1.35957e-06
   1.98804 1.2772e-06
   1.98874 1.19895e-06
    1.9894 1.12536e-06
   1.99002 1.05713e-06
   1.99061 9.94095e-07
   1.99116 9.3756e-07
   1.99169 8.86273e-07
   1.99218 8.40927e-07
   1.99265 7.99882e-07
    1.9931 7.79545e-07
   1.99355 7.72092e-07
   1.99399 7.64377e-07
   1.99444 7.57162e-07
   1.99488 7.47135e-07
   1.99533 7.34423e-07
   1.99577 7.1524e-07
   1.99622 6.86418e-07
   1.99666 6.4715e-07
   1.99711 5.90753e-07
   1.99755 5.18419e-07
     1.998 4.25149e-07
   1.99844 3.17962e-07
   1.99889 2.01472e-07
   1.99933 9.59095e-08
   1.99978 2.57936e-08
         2          0
