         0          0
 0.0002225 1.89324e-14
 0.0006675 2.74684e-13
 0.0011125 1.05924e-12
 0.0015575 2.2918e-12
 0.0020025 3.67747e-12
 0.0024475 5.01653e-12
 0.0028925 6.16335e-12
 0.0033375 7.07068e-12
 0.0037825 7.75566e-12
 0.0042275 8.21893e-12
 0.0046725 8.54647e-12
 0.0051175 8.6994e-12
 0.0055625 8.82876e-12
 0.0060075 8.82907e-12
 0.0064525 8.88135e-12
 0.0068975 8.85335e-12
 0.0073476 9.14934e-12
0.00781612 9.84977e-12
0.00831203 1.06823e-11
0.00883694 1.15837e-11
0.00939255 1.26627e-11
0.00998065 1.38386e-11
 0.0106031 1.51821e-11
  0.011262 1.66192e-11
 0.0119594 1.82046e-11
 0.0126977 1.98759e-11
  0.013479 2.16453e-11
 0.0143061 2.34813e-11
 0.0151815 2.5366e-11
 0.0161082 2.7298e-11
  0.017089 2.92515e-11
 0.0181271 3.12448e-11
  0.019226 3.32431e-11
 0.0203891 3.52632e-11
 0.0216203 3.73167e-11
 0.0229234 3.9387e-11
 0.0243028 4.14928e-11
 0.0257628 4.36497e-11
 0.0273082 4.5842e-11
  0.028944 4.80417e-11
 0.0306754 5.02976e-11
 0.0325081 5.25438e-11
 0.0344479 5.48316e-11
 0.0365012 5.71313e-11
 0.0386746 5.93967e-11
  0.040975 6.16877e-11
   0.04341 6.39432e-11
 0.0459873 6.62275e-11
 0.0487154 6.84407e-11
  0.051603 7.06922e-11
 0.0546595 7.29022e-11
 0.0578947 7.50495e-11
 0.0613191 7.72029e-11
 0.0649437 7.92644e-11
 0.0687803 8.13827e-11
 0.0728413 8.33364e-11
 0.0771397 8.53985e-11
 0.0816895 8.73133e-11
 0.0865054 8.92828e-11
 0.0916029 9.11153e-11
 0.0969985 9.29854e-11
   0.10271 9.4802e-11
  0.108755 9.67213e-11
  0.115153 9.84699e-11
  0.121926 1.00399e-10
  0.129095 1.02217e-10
  0.136683 1.04167e-10
  0.144715 1.05942e-10
  0.153216 1.07959e-10
  0.162214 1.09903e-10
  0.171739 1.11835e-10
  0.181821 1.13832e-10
  0.192492 1.15798e-10
  0.203788 1.17746e-10
  0.215744 1.19668e-10
  0.228399 1.21567e-10
  0.241794 1.23307e-10
  0.255972 1.25062e-10
   0.27098 1.26979e-10
  0.286865 1.27465e-10
  0.304824 1.49373e-10
  0.324407 1.39262e-10
  0.343989 1.31265e-10
  0.363571 1.23629e-10
  0.383154 1.16496e-10
  0.402736 1.09905e-10
  0.422319 1.03891e-10
  0.441901 9.83641e-11
  0.461484 9.30602e-11
  0.481066 8.78874e-11
  0.500648 8.30231e-11
  0.520231 7.84275e-11
  0.539813 7.40981e-11
  0.559396 7.0102e-11
  0.578978 6.62281e-11
   0.59856 6.24629e-11
  0.618143 5.89603e-11
  0.637725 5.56299e-11
  0.657308 5.24332e-11
   0.67689 4.95332e-11
  0.696473 4.68005e-11
  0.716055 4.42733e-11
  0.735637 4.19621e-11
   0.75522 3.97662e-11
  0.774802 3.7719e-11
  0.794385 3.58169e-11
  0.813967 3.4053e-11
  0.833549 3.24729e-11
  0.853132 3.10129e-11
  0.872714 2.9768e-11
  0.892297 2.87191e-11
  0.911879 2.78012e-11
  0.931462 2.71305e-11
  0.951044 2.65634e-11
  0.970626 2.62479e-11
  0.990209 2.60543e-11
   1.00979 2.61347e-11
   1.02937 2.63236e-11
   1.04896 2.68098e-11
   1.06854 2.74194e-11
   1.08812 2.82419e-11
    1.1077 2.91455e-11
   1.12729 3.03014e-11
   1.14687 3.15958e-11
   1.16645 3.30493e-11
   1.18603 3.46767e-11
   1.20562 3.64742e-11
    1.2252 3.84628e-11
   1.24478 4.05257e-11
   1.26436 4.27993e-11
   1.28395 4.52141e-11
   1.30353 4.78447e-11
   1.32311 5.04885e-11
   1.34269 5.34609e-11
   1.36228 5.64717e-11
   1.38186 5.97637e-11
   1.40144 6.32213e-11
   1.42102 6.69213e-11
   1.44061 7.07307e-11
   1.46019 7.48273e-11
   1.47977 7.89929e-11
   1.49935 8.35373e-11
   1.51894 8.80716e-11
   1.53852 9.3047e-11
    1.5581 9.83693e-11
   1.57768  1.041e-10
   1.59727 1.10148e-10
   1.61685 1.16753e-10
   1.63643 1.23943e-10
   1.65601 1.31801e-10
    1.6756 1.39625e-10
   1.69518 1.49908e-10
   1.71314 1.27853e-10
   1.72902 1.27326e-10
   1.74403 1.25381e-10
   1.75821 1.23724e-10
    1.7716 1.21955e-10
   1.78426 1.20151e-10
   1.79621 1.18138e-10
   1.80751 1.16118e-10
   1.81818 1.14116e-10
   1.82826 1.12123e-10
   1.83779 1.10128e-10
   1.84679 1.08178e-10
   1.85529 1.06101e-10
   1.86332 1.04244e-10
   1.87091 1.02278e-10
   1.87808 1.00539e-10
   1.88485 9.86089e-11
   1.89125 9.6789e-11
   1.89729 9.48401e-11
     1.903 9.30185e-11
    1.9084 9.11007e-11
    1.9135 8.92959e-11
   1.91831 8.73298e-11
   1.92286 8.53669e-11
   1.92716 8.33605e-11
   1.93122 8.13481e-11
   1.93506 7.92628e-11
   1.93868 7.71596e-11
   1.94211 7.50119e-11
   1.94534 7.28787e-11
    1.9484 7.06449e-11
   1.95129 6.84232e-11
   1.95401 6.62075e-11
   1.95659 6.39135e-11
   1.95903 6.16841e-11
   1.96133 5.9357e-11
    1.9635 5.70863e-11
   1.96555 5.47841e-11
   1.96749 5.25314e-11
   1.96933 5.02474e-11
   1.97106 4.80385e-11
   1.97269 4.5816e-11
   1.97424 4.36562e-11
    1.9757 4.15114e-11
   1.97708 3.94035e-11
   1.97838 3.73301e-11
   1.97961 3.52778e-11
   1.98077 3.32627e-11
   1.98187 3.12621e-11
   1.98291 2.92863e-11
   1.98389 2.73203e-11
   1.98482 2.54164e-11
   1.98569 2.35089e-11
   1.98652 2.16864e-11
    1.9873 1.99103e-11
   1.98804 1.82381e-11
   1.98874 1.66602e-11
    1.9894 1.51947e-11
   1.99002 1.38835e-11
   1.99061 1.26686e-11
   1.99116 1.16345e-11
   1.99169 1.06882e-11
   1.99218 9.8884e-12
   1.99265 9.16545e-12
    1.9931 8.89207e-12
   1.99355 8.89118e-12
   1.99399 8.86154e-12
   1.99444 8.83703e-12
   1.99488 8.72892e-12
   1.99533 8.55667e-12
   1.99577 8.2458e-12
   1.99622 7.7509e-12
   1.99666 7.08571e-12
   1.99711 6.15739e-12
   1.99755 5.02414e-12
     1.998 3.67352e-12
   1.99844 2.2876e-12
   1.99889 1.05825e-12
   1.99933 2.74651e-13
   1.99978 1.9065e-14
         2          0
