         0 0.000636406
 0.0002225 0.000636406
 0.0006675 0.000636397
 0.0011125 0.000636277
 0.0015575 0.000635917
 0.0020025 0.00063516
 0.0024475 0.000633841
 0.0028925 0.000631807
 0.0033375 0.00062892
 0.0037825 0.00062506
 0.0042275 0.000620133
 0.0046725 0.000614064
 0.0051175 0.000606805
 0.0055625 0.000598326
 0.0060075 0.000588623
 0.0064525 0.000577699
 0.0068975 0.000565559
 0.0073476 0.000552071
0.00781612 0.000536775
0.00831203 0.000519234
0.00883694 0.000499223
0.00939255  0.0004765
0.00998065 0.000450825
 0.0106031 0.000421971
  0.011262 0.000389732
 0.0119594 0.00035392
 0.0126977 0.000314337
  0.013479 0.00027081
 0.0143061 0.000223227
 0.0151815 0.000171508
 0.0161082 0.000115589
  0.017089 5.54422e-05
 0.0181271 -8.88798e-06
  0.019226 -7.72902e-05
 0.0203891 -0.000149639
 0.0216203 -0.000225751
 0.0229234 -0.000305412
 0.0243028 -0.000388344
 0.0257628 -0.000474214
 0.0273082 -0.000562546
  0.028944 -0.000652833
 0.0306754 -0.000744532
 0.0325081  -0.000837
 0.0344479 -0.000929616
 0.0365012 -0.00102167
 0.0386746 -0.00111222
  0.040975 -0.00120028
   0.04341 -0.00128491
 0.0459873 -0.00136513
 0.0487154 -0.00144039
  0.051603 -0.00151045
 0.0546595 -0.00157511
 0.0578947 -0.00163378
 0.0613191 -0.00168633
 0.0649437 -0.00173304
 0.0687803 -0.00177462
 0.0728413 -0.0018111
 0.0771397 -0.0018428
 0.0816895 -0.00187046
 0.0865054 -0.00189308
 0.0916029 -0.00190951
 0.0969985 -0.00191934
   0.10271 -0.00192429
  0.108755 -0.0019241
  0.115153 -0.00192043
  0.121926 -0.00191529
  0.129095 -0.00190911
  0.136683 -0.00189921
  0.144715 -0.00188645
  0.153216 -0.00187388
  0.162214 -0.00186192
  0.171739 -0.00185251
  0.181821 -0.00184448
  0.192492 -0.00183392
  0.203788 -0.00182034
  0.215744 -0.00179689
  0.228399 -0.00176361
  0.241794 -0.00173049
  0.255972 -0.00169774
   0.27098 -0.00166728
  0.286865 -0.00162752
  0.304824 -0.00157521
  0.324407 -0.00151936
  0.343989 -0.00146695
  0.363571 -0.00143308
  0.383154 -0.00140264
  0.402736 -0.00135228
  0.422319 -0.00129632
  0.441901 -0.00125784
  0.461484 -0.00122613
  0.481066 -0.00119899
  0.500648 -0.00117037
  0.520231 -0.00114024
  0.539813 -0.00109114
  0.559396 -0.0010227
  0.578978 -0.000949063
   0.59856 -0.000881277
  0.618143 -0.000821893
  0.637725 -0.000766044
  0.657308 -0.000708589
   0.67689 -0.000655272
  0.696473 -0.00059998
  0.716055 -0.000546878
  0.735637 -0.000501919
   0.75522 -0.000463821
  0.774802 -0.000432217
  0.794385 -0.00040779
  0.813967 -0.000390067
  0.833549 -0.000370093
  0.853132 -0.000349437
  0.872714 -0.000335074
  0.892297 -0.000319426
  0.911879 -0.000302982
  0.931462 -0.000290216
  0.951044 -0.000280713
  0.970626 -0.000271649
  0.990209 -0.000264025
   1.00979 -0.000260862
   1.02937 -0.00026221
   1.04896 -0.000262879
   1.06854 -0.000269552
   1.08812 -0.00028535
    1.1077 -0.000304946
   1.12729 -0.000324294
   1.14687 -0.000346978
   1.16645 -0.00037351
   1.18603 -0.00040187
   1.20562 -0.000432961
    1.2252 -0.000464258
   1.24478 -0.000498372
   1.26436 -0.000540582
   1.28395 -0.000586945
   1.30353 -0.000621905
   1.32311 -0.000653508
   1.34269 -0.000691379
   1.36228 -0.000722982
   1.38186 -0.000746797
   1.40144 -0.000779137
   1.42102 -0.000831303
   1.44061 -0.000888332
   1.46019 -0.000939104
   1.47977 -0.000989386
   1.49935 -0.00103301
   1.51894 -0.00108219
   1.53852 -0.00114127
    1.5581 -0.00120339
   1.57768 -0.00126172
   1.59727 -0.0013051
   1.61685 -0.00135905
   1.63643 -0.00142976
   1.65601 -0.00150713
    1.6756 -0.00155667
   1.69518 -0.00160206
   1.71314 -0.00165703
   1.72902 -0.00169356
   1.74403 -0.00174074
   1.75821 -0.00178319
    1.7716 -0.00182049
   1.78426 -0.00185587
   1.79621 -0.00188948
   1.80751 -0.00192285
   1.81818 -0.00194748
   1.82826 -0.00196189
   1.83779 -0.00196802
   1.84679 -0.00196956
   1.85529 -0.00196849
   1.86332 -0.00196472
   1.87091 -0.00195461
   1.87808 -0.00194164
   1.88485 -0.0019274
   1.89125 -0.00191255
   1.89729 -0.00189966
     1.903 -0.00188788
    1.9084 -0.00187591
    1.9135 -0.00186206
   1.91831 -0.00184469
   1.92286 -0.00182334
   1.92716 -0.00179663
   1.93122 -0.00176378
   1.93506 -0.00172417
   1.93868 -0.00167785
   1.94211 -0.00162456
   1.94534 -0.00156484
    1.9484 -0.00149913
   1.95129 -0.00142796
   1.95401 -0.00135168
   1.95659 -0.00127093
   1.95903 -0.00118671
   1.96133 -0.00109995
    1.9635 -0.00101151
   1.96555 -0.000922078
   1.96749 -0.000832167
   1.96933 -0.000742181
   1.97106 -0.000652598
   1.97269 -0.000563944
   1.97424 -0.000476734
    1.9757 -0.000391504
   1.97708 -0.000308751
   1.97838 -0.00022895
   1.97961 -0.000152488
   1.98077 -7.96865e-05
   1.98187 -1.08016e-05
   1.98291 5.40109e-05
   1.98389 0.000114665
   1.98482  0.0001711
   1.98569 0.000223312
   1.98652 0.000271361
    1.9873 0.000315346
   1.98804  0.0003554
   1.98874 0.00039167
    1.9894 0.000424328
   1.99002 0.000453583
   1.99061 0.000479658
   1.99116 0.000502776
   1.99169 0.000523157
   1.99218 0.000541038
   1.99265 0.000556654
    1.9931 0.000570447
   1.99355 0.000582881
   1.99399 0.000594083
   1.99444 0.000604036
   1.99488 0.000612734
   1.99533 0.000620181
   1.99577 0.000626406
   1.99622 0.000631461
   1.99666 0.000635422
   1.99711 0.000638387
   1.99755 0.000640478
     1.998 0.000641834
   1.99844 0.000642613
   1.99889 0.000642984
   1.99933 0.000643109
   1.99978 0.000643119
         2 0.000643119
