         0 0.00128882
 0.0002225 0.00128882
 0.0006675 0.00128881
 0.0011125  0.0012887
 0.0015575 0.00128835
 0.0020025 0.00128761
 0.0024475 0.00128633
 0.0028925 0.00128435
 0.0033375 0.00128154
 0.0037825 0.00127779
 0.0042275   0.001273
 0.0046725  0.0012671
 0.0051175 0.00126004
 0.0055625 0.00125179
 0.0060075 0.00124234
 0.0064525  0.0012317
 0.0068975 0.00121988
 0.0073476 0.00120675
0.00781612 0.00119186
0.00831203 0.00117479
0.00883694 0.00115531
0.00939255  0.0011332
0.00998065 0.00110824
 0.0106031  0.0010802
  0.011262 0.00104888
 0.0119594 0.00101405
 0.0126977 0.000975542
  0.013479 0.000933187
 0.0143061 0.00088685
 0.0151815 0.000836431
 0.0161082 0.000781877
  0.017089 0.000723177
 0.0181271 0.000660379
  0.019226 0.000593583
 0.0203891 0.000522954
 0.0216203 0.000448713
 0.0229234 0.000371146
 0.0243028 0.000290599
 0.0257628 0.000207473
 0.0273082 0.000122224
  0.028944 3.53542e-05
 0.0306754 -5.25882e-05
 0.0325081 -0.000141019
 0.0344479 -0.000229326
 0.0365012 -0.000316874
 0.0386746 -0.000403021
  0.040975 -0.00048713
   0.04341 -0.000568592
 0.0459873 -0.000646843
 0.0487154 -0.000721385
  0.051603 -0.000791787
 0.0546595 -0.000857699
 0.0578947 -0.000918854
 0.0613191 -0.000975075
 0.0649437 -0.00102627
 0.0687803 -0.00107242
 0.0728413 -0.00111359
 0.0771397 -0.00114991
 0.0816895 -0.00118151
 0.0865054 -0.00120857
 0.0916029 -0.00123127
 0.0969985 -0.00124982
   0.10271 -0.00126448
  0.108755 -0.0012755
  0.115153 -0.00128314
  0.121926 -0.00128756
  0.129095 -0.00128889
  0.136683 -0.00128724
  0.144715 -0.00128265
  0.153216 -0.00127527
  0.162214 -0.00126523
  0.171739 -0.00125254
  0.181821 -0.00123699
  0.192492 -0.00121839
  0.203788 -0.00119604
  0.215744 -0.00116978
  0.228399 -0.00113974
  0.241794 -0.00110692
  0.255972 -0.00106965
   0.27098 -0.00103036
  0.286865 -0.000985267
  0.304824 -0.000928126
  0.324407 -0.000879944
  0.343989 -0.000836352
  0.363571 -0.000791371
  0.383154 -0.000747433
  0.402736 -0.000702184
  0.422319 -0.000657849
  0.441901 -0.000611993
  0.461484 -0.000566239
  0.481066 -0.000519684
  0.500648 -0.000472666
  0.520231 -0.000424942
  0.539813 -0.000376433
  0.559396 -0.000327604
  0.578978 -0.000278382
   0.59856 -0.00022942
  0.618143 -0.000180722
  0.637725 -0.000132584
  0.657308 -8.58871e-05
   0.67689 -4.0721e-05
  0.696473 3.30298e-06
  0.716055 4.63243e-05
  0.735637 8.79863e-05
   0.75522 0.00012822
  0.774802 0.000166554
  0.794385 0.000202221
  0.813967 0.000234784
  0.833549 0.000264584
  0.853132 0.000291591
  0.872714 0.000315728
  0.892297 0.000336659
  0.911879 0.000353916
  0.931462 0.000367466
  0.951044 0.000377282
  0.970626 0.000383279
  0.990209 0.000385398
   1.00979 0.000383928
   1.02937 0.000378936
   1.04896 0.000370353
   1.06854 0.000358386
   1.08812 0.000342939
    1.1077 0.000323935
   1.12729 0.000301859
   1.14687 0.000277094
   1.16645 0.000249871
   1.18603 0.000220431
   1.20562 0.000188982
    1.2252 0.000155511
   1.24478 0.000120044
   1.26436 8.28836e-05
   1.28395 4.36198e-05
   1.30353 1.91773e-06
   1.32311 -4.15168e-05
   1.34269 -8.62807e-05
   1.36228 -0.000132111
   1.38186 -0.000178975
   1.40144 -0.000226457
   1.42102 -0.000274396
   1.44061 -0.00032289
   1.46019 -0.000372304
   1.47977 -0.000422139
   1.49935 -0.000471267
   1.51894 -0.000519759
   1.53852 -0.000566842
    1.5581 -0.000612738
   1.57768 -0.00065844
   1.59727 -0.000702556
   1.61685 -0.000747296
   1.63643 -0.000791236
   1.65601 -0.000836454
    1.6756 -0.00088006
   1.69518 -0.000929463
   1.71314 -0.000987734
   1.72902 -0.00103311
   1.74403 -0.00107305
   1.75821 -0.00111156
    1.7716 -0.00114557
   1.78426 -0.00117653
   1.79621 -0.00120386
   1.80751 -0.00122778
   1.81818 -0.0012482
   1.82826 -0.00126529
   1.83779 -0.00127911
   1.84679 -0.00128979
   1.85529 -0.00129739
   1.86332 -0.00130194
   1.87091 -0.00130352
   1.87808 -0.00130221
   1.88485 -0.00129796
   1.89125 -0.00129056
   1.89729 -0.0012797
     1.903 -0.00126508
    1.9084 -0.00124645
    1.9135 -0.00122359
   1.91831 -0.00119633
   1.92286 -0.00116449
   1.92716 -0.0011279
   1.93122 -0.00108639
   1.93506 -0.00103985
   1.93868 -0.00098825
   1.94211 -0.00093161
   1.94534 -0.000870036
    1.9484 -0.000803706
   1.95129 -0.000732874
   1.95401 -0.00065788
   1.95659 -0.000579149
   1.95903 -0.00049718
   1.96133 -0.000412543
    1.9635 -0.000325852
   1.96555 -0.00023775
   1.96749 -0.000148882
   1.96933 -5.98901e-05
   1.97106 2.86045e-05
   1.97269 0.000116011
   1.97424 0.000201778
    1.9757 0.000285399
   1.97708 0.000366418
   1.97838 0.00044443
   1.97961 0.000519091
   1.98077 0.000590115
   1.98187 0.000657275
   1.98291 0.00072041
   1.98389 0.000779418
   1.98482 0.000834254
   1.98569 0.000884926
   1.98652 0.000931493
    1.9873 0.000974055
   1.98804 0.00101275
   1.98874 0.00104774
    1.9894 0.00107922
   1.99002 0.00110739
   1.99061 0.00113247
   1.99116 0.00115468
   1.99169 0.00117425
   1.99218  0.0011914
   1.99265 0.00120636
    1.9931 0.00121955
   1.99355 0.00123143
   1.99399 0.00124212
   1.99444 0.00125161
   1.99488  0.0012599
   1.99533 0.00126699
   1.99577 0.00127292
   1.99622 0.00127774
   1.99666 0.00128151
   1.99711 0.00128433
   1.99755 0.00128632
     1.998 0.00128761
   1.99844 0.00128835
   1.99889  0.0012887
   1.99933 0.00128881
   1.99978 0.00128882
         2 0.00128882
