         0 9.15294e-05
 0.0002225 9.15294e-05
 0.0006675 9.14805e-05
 0.0011125 9.14418e-05
 0.0015575 9.14264e-05
 0.0020025 9.14327e-05
 0.0024475 9.14583e-05
 0.0028925 9.15021e-05
 0.0033375 9.15631e-05
 0.0037825 9.16403e-05
 0.0042275 9.17325e-05
 0.0046725 9.18384e-05
 0.0051175 9.19566e-05
 0.0055625 9.20858e-05
 0.0060075 9.22245e-05
 0.0064525 9.23715e-05
 0.0068975 9.25253e-05
 0.0073476 9.2686e-05
0.00781612 9.28575e-05
0.00831203 9.30427e-05
0.00883694 9.32417e-05
0.00939255 9.3454e-05
0.00998065 9.3679e-05
 0.0106031 9.39155e-05
  0.011262 9.41625e-05
 0.0119594 9.44182e-05
 0.0126977 9.46808e-05
  0.013479 9.49482e-05
 0.0143061 9.52177e-05
 0.0151815 9.54864e-05
 0.0161082 9.57511e-05
  0.017089 9.60081e-05
 0.0181271 9.62537e-05
  0.019226 9.64836e-05
 0.0203891 9.66935e-05
 0.0216203 9.6879e-05
 0.0229234 9.70357e-05
 0.0243028 9.7159e-05
 0.0257628 9.72449e-05
 0.0273082 9.72893e-05
  0.028944 9.72888e-05
 0.0306754  9.724e-05
 0.0325081 9.71406e-05
 0.0344479 9.69884e-05
 0.0365012 9.67823e-05
 0.0386746 9.65214e-05
  0.040975 9.62059e-05
   0.04341 9.58369e-05
 0.0459873 9.54161e-05
 0.0487154 9.49464e-05
  0.051603 9.44309e-05
 0.0546595 9.38735e-05
 0.0578947 9.32788e-05
 0.0613191 9.26521e-05
 0.0649437 9.19994e-05
 0.0687803 9.13266e-05
 0.0728413 9.06395e-05
 0.0771397 8.99432e-05
 0.0816895 8.92414e-05
 0.0865054 8.85373e-05
 0.0916029 8.78333e-05
 0.0969985 8.71312e-05
   0.10271 8.64321e-05
  0.108755 8.57375e-05
  0.115153 8.50494e-05
  0.121926 8.43705e-05
  0.129095 8.37031e-05
  0.136683 8.30462e-05
  0.144715 8.23973e-05
  0.153216 8.17546e-05
  0.162214 8.1118e-05
  0.171739 8.04867e-05
  0.181821 7.98584e-05
  0.192492 7.92302e-05
  0.203788 7.85992e-05
  0.215744 7.79607e-05
  0.228399 7.73181e-05
  0.241794 7.66702e-05
  0.255972 7.60183e-05
   0.27098 7.53694e-05
  0.286865 7.47372e-05
  0.304824 7.40975e-05
  0.324407 7.34041e-05
  0.343989 7.27424e-05
  0.363571 7.21126e-05
  0.383154 7.1501e-05
  0.402736 7.08995e-05
  0.422319 7.03108e-05
  0.441901 6.97385e-05
  0.461484 6.91816e-05
  0.481066 6.86377e-05
  0.500648 6.80986e-05
  0.520231 6.75635e-05
  0.539813 6.70444e-05
  0.559396 6.65401e-05
  0.578978 6.60501e-05
   0.59856 6.55818e-05
  0.618143 6.51309e-05
  0.637725 6.46956e-05
  0.657308 6.42752e-05
   0.67689 6.38683e-05
  0.696473 6.34728e-05
  0.716055 6.30926e-05
  0.735637 6.27265e-05
   0.75522 6.2377e-05
  0.774802 6.20441e-05
  0.794385 6.17305e-05
  0.813967 6.14398e-05
  0.833549 6.11751e-05
  0.853132 6.09376e-05
  0.872714 6.07268e-05
  0.892297 6.05446e-05
  0.911879 6.0393e-05
  0.931462 6.02729e-05
  0.951044 6.01837e-05
  0.970626 6.01241e-05
  0.990209 6.00975e-05
   1.00979 6.01024e-05
   1.02937 6.01382e-05
   1.04896 6.02063e-05
   1.06854 6.03069e-05
   1.08812 6.04395e-05
    1.1077 6.06012e-05
   1.12729 6.07891e-05
   1.14687 6.10004e-05
   1.16645 6.12363e-05
   1.18603 6.14964e-05
   1.20562 6.17771e-05
    1.2252 6.20808e-05
   1.24478 6.24056e-05
   1.26436 6.27481e-05
   1.28395 6.31094e-05
   1.30353 6.34912e-05
   1.32311 6.38944e-05
   1.34269 6.43181e-05
   1.36228 6.47585e-05
   1.38186 6.52154e-05
   1.40144 6.56869e-05
   1.42102  6.617e-05
   1.44061 6.66629e-05
   1.46019 6.71679e-05
   1.47977 6.76887e-05
   1.49935 6.82243e-05
   1.51894 6.87816e-05
   1.53852 6.93539e-05
    1.5581 6.99352e-05
   1.57768 7.05309e-05
   1.59727 7.11371e-05
   1.61685 7.17649e-05
   1.63643 7.24199e-05
   1.65601 7.30939e-05
    1.6756 7.37989e-05
   1.69518 7.45392e-05
   1.71314 7.52085e-05
   1.72902 7.58548e-05
   1.74403 7.64981e-05
   1.75821 7.71395e-05
    1.7716 7.77782e-05
   1.78426 7.84134e-05
   1.79621 7.90451e-05
   1.80751 7.96714e-05
   1.81818 8.02977e-05
   1.82826 8.09246e-05
   1.83779 8.15509e-05
   1.84679 8.21793e-05
   1.85529 8.28119e-05
   1.86332 8.3452e-05
   1.87091 8.41018e-05
   1.87808 8.47621e-05
   1.88485 8.54336e-05
   1.89125 8.61154e-05
   1.89729 8.68059e-05
     1.903 8.75033e-05
    1.9084 8.8205e-05
    1.9135 8.89087e-05
   1.91831 8.96114e-05
   1.92286 9.03104e-05
   1.92716 9.10022e-05
   1.93122 9.16832e-05
   1.93506 9.23495e-05
   1.93868 9.29964e-05
   1.94211 9.36189e-05
   1.94534 9.4211e-05
    1.9484 9.47672e-05
   1.95129 9.52821e-05
   1.95401 9.57512e-05
   1.95659 9.6171e-05
   1.95903 9.65386e-05
   1.96133 9.68522e-05
    1.9635 9.71112e-05
   1.96555 9.73155e-05
   1.96749 9.74658e-05
   1.96933 9.75636e-05
   1.97106 9.76107e-05
   1.97269 9.76098e-05
   1.97424 9.75639e-05
    1.9757 9.74766e-05
   1.97708 9.73518e-05
   1.97838 9.71936e-05
   1.97961 9.70065e-05
   1.98077 9.67949e-05
   1.98187 9.65633e-05
   1.98291 9.6316e-05
   1.98389 9.60573e-05
   1.98482 9.5791e-05
   1.98569 9.55207e-05
   1.98652 9.52497e-05
    1.9873 9.49808e-05
   1.98804 9.47167e-05
   1.98874 9.44596e-05
    1.9894 9.42114e-05
   1.99002 9.39736e-05
   1.99061 9.37476e-05
   1.99116 9.35342e-05
   1.99169 9.33342e-05
   1.99218 9.31481e-05
   1.99265 9.29758e-05
    1.9931 9.28143e-05
   1.99355 9.26598e-05
   1.99399 9.25121e-05
   1.99444 9.23727e-05
   1.99488 9.2243e-05
   1.99533 9.21242e-05
   1.99577 9.20179e-05
   1.99622 9.19252e-05
   1.99666 9.18477e-05
   1.99711 9.17864e-05
   1.99755 9.17424e-05
     1.998 9.17167e-05
   1.99844 9.17104e-05
   1.99889 9.17259e-05
   1.99933 9.17648e-05
   1.99978 9.18139e-05
         2 9.18139e-05
