         0          0
 0.0002225   0.010551
 0.0006675  0.0316422
 0.0011125  0.0527131
 0.0015575  0.0737437
 0.0020025  0.0947037
 0.0024475   0.115553
 0.0028925   0.136244
 0.0033375   0.156723
 0.0037825    0.17693
 0.0042275   0.196808
 0.0046725   0.216298
 0.0051175   0.235347
 0.0055625   0.253907
 0.0060075   0.271936
 0.0064525   0.289402
 0.0068975    0.30628
 0.0073476   0.322738
0.00781612   0.339204
0.00831203   0.355884
0.00883694   0.372706
0.00939255   0.389594
0.00998065   0.406472
 0.0106031   0.423264
  0.011262   0.439898
 0.0119594   0.456306
 0.0126977   0.472425
  0.013479     0.4882
 0.0143061   0.503586
 0.0151815   0.518547
 0.0161082   0.533055
  0.017089   0.547095
 0.0181271   0.560655
  0.019226   0.573735
 0.0203891   0.586335
 0.0216203   0.598463
 0.0229234   0.610131
 0.0243028   0.621353
 0.0257628    0.63215
 0.0273082   0.642541
  0.028944   0.652548
 0.0306754    0.66219
 0.0325081   0.671483
 0.0344479   0.680446
 0.0365012   0.689102
 0.0386746   0.697469
  0.040975   0.705567
   0.04341   0.713406
 0.0459873   0.720992
 0.0487154   0.728347
  0.051603   0.735514
 0.0546595   0.742539
 0.0578947   0.749441
 0.0613191   0.756219
 0.0649437   0.762872
 0.0687803   0.769405
 0.0728413   0.775856
 0.0771397   0.782288
 0.0816895    0.78871
 0.0865054   0.795121
 0.0916029   0.801551
 0.0969985   0.808045
   0.10271   0.814614
  0.108755   0.821235
  0.115153    0.82793
  0.121926    0.83472
  0.129095   0.841635
  0.136683   0.848781
  0.144715   0.856094
  0.153216   0.863492
  0.162214   0.870964
  0.171739   0.878498
  0.181821   0.886057
  0.192492   0.893667
  0.203788    0.90161
  0.215744   0.909881
  0.228399    0.91796
  0.241794    0.92592
  0.255972   0.934075
   0.27098   0.942604
  0.286865    0.95128
  0.304824   0.960462
  0.324407   0.970105
  0.343989    0.97935
  0.363571   0.987897
  0.383154   0.996379
  0.402736    1.00476
  0.422319    1.01255
  0.441901    1.01976
  0.461484    1.02658
  0.481066    1.03349
  0.500648    1.03999
  0.520231    1.04595
  0.539813    1.05196
  0.559396    1.05833
  0.578978    1.06459
   0.59856    1.07047
  0.618143    1.07614
  0.637725    1.08181
  0.657308    1.08719
   0.67689    1.09214
  0.696473    1.09675
  0.716055    1.10103
  0.735637    1.10503
   0.75522     1.1089
  0.774802    1.11269
  0.794385    1.11636
  0.813967    1.11996
  0.833549    1.12322
  0.853132    1.12602
  0.872714    1.12862
  0.892297    1.13101
  0.911879     1.1331
  0.931462    1.13469
  0.951044    1.13595
  0.970626    1.13701
  0.990209    1.13768
   1.00979    1.13776
   1.02937    1.13735
   1.04896    1.13675
   1.06854    1.13587
   1.08812    1.13454
    1.1077    1.13285
   1.12729    1.13081
   1.14687    1.12845
   1.16645    1.12574
   1.18603    1.12278
   1.20562    1.11961
    1.2252     1.1163
   1.24478    1.11298
   1.26436    1.10951
   1.28395    1.10566
   1.30353    1.10153
   1.32311    1.09718
   1.34269    1.09258
   1.36228    1.08784
   1.38186    1.08285
   1.40144    1.07765
   1.42102     1.0727
   1.44061    1.06759
   1.46019    1.06204
   1.47977    1.05598
   1.49935     1.0492
   1.51894    1.04225
   1.53852    1.03516
    1.5581    1.02811
   1.57768    1.02131
   1.59727    1.01441
   1.61685    1.00658
   1.63643     0.9979
   1.65601   0.988455
    1.6756   0.978151
   1.69518   0.968018
   1.71314   0.958881
   1.72902   0.950046
   1.74403   0.941508
   1.75821   0.933242
    1.7716   0.925195
   1.78426    0.91735
   1.79621   0.909423
   1.80751   0.901661
   1.81818   0.894288
   1.82826     0.8873
   1.83779   0.880538
   1.84679   0.873814
   1.85529   0.867126
   1.86332   0.860342
   1.87091   0.853489
   1.87808   0.846716
   1.88485   0.839981
   1.89125   0.833299
   1.89729   0.826755
     1.903   0.820326
    1.9084   0.813953
    1.9135   0.807592
   1.91831   0.801196
   1.92286   0.794759
   1.92716   0.788288
   1.93122   0.781765
   1.93506   0.775145
   1.93868   0.768364
   1.94211   0.761388
   1.94534   0.754231
    1.9484   0.746928
   1.95129   0.739497
   1.95401   0.731938
   1.95659   0.724234
   1.95903   0.716347
   1.96133   0.708248
    1.9635    0.69991
   1.96555   0.691301
   1.96749   0.682382
   1.96933   0.673117
   1.97106   0.663474
   1.97269    0.65343
   1.97424   0.642968
    1.9757   0.632074
   1.97708   0.620739
   1.97838   0.608952
   1.97961   0.596706
   1.98077   0.583991
   1.98187   0.570803
   1.98291   0.557137
   1.98389   0.542995
   1.98482   0.528386
   1.98569   0.513324
   1.98652   0.497835
    1.9873   0.481949
   1.98804    0.46571
   1.98874   0.449166
    1.9894   0.432377
   1.99002   0.415408
   1.99061   0.398331
   1.99116   0.381221
   1.99169   0.364156
   1.99218   0.347212
   1.99265   0.330466
    1.9931   0.313709
   1.99355   0.296506
   1.99399   0.278686
   1.99444   0.260273
   1.99488   0.241303
   1.99533   0.221816
   1.99577   0.201865
   1.99622   0.181505
   1.99666   0.160796
   1.99711   0.139801
   1.99755   0.118581
     1.998  0.0971925
   1.99844   0.075686
   1.99889  0.0541037
   1.99933  0.0324778
   1.99978  0.0108297
         2          0
