         0          0
 0.0002225 -1.70274e-06
 0.0006675 -5.12446e-06
 0.0011125 -8.5676e-06
 0.0015575 -1.19965e-05
 0.0020025 -1.53341e-05
 0.0024475 -1.84687e-05
 0.0028925 -2.12687e-05
 0.0033375 -2.3598e-05
 0.0037825 -2.53301e-05
 0.0042275 -2.63587e-05
 0.0046725 -2.65836e-05
 0.0051175 -2.59136e-05
 0.0055625 -2.4302e-05
 0.0060075 -2.17499e-05
 0.0064525 -1.82182e-05
 0.0068975 -1.36795e-05
 0.0073476 -8.14341e-06
0.00781612 -1.52179e-06
0.00831203 6.18583e-06
0.00883694 1.46803e-05
0.00939255 2.34223e-05
0.00998065 3.1585e-05
 0.0106031 3.79739e-05
  0.011262 4.12172e-05
 0.0119594 3.98379e-05
 0.0126977 3.24396e-05
  0.013479 1.80636e-05
 0.0143061 -3.58262e-06
 0.0151815 -3.18209e-05
 0.0161082 -6.52684e-05
  0.017089 -0.000101695
 0.0181271 -0.000138098
  0.019226 -0.000171398
 0.0203891 -0.000198757
 0.0216203 -0.000218249
 0.0229234 -0.000228847
 0.0243028 -0.000229431
 0.0257628 -0.000218817
 0.0273082 -0.000197567
  0.028944 -0.000171063
 0.0306754 -0.000147353
 0.0325081 -0.000132028
 0.0344479 -0.000125474
 0.0365012 -0.000126658
 0.0386746 -0.0001338
  0.040975 -0.000148476
   0.04341 -0.000173333
 0.0459873 -0.0002031
 0.0487154 -0.000233937
  0.051603 -0.000273383
 0.0546595 -0.000336731
 0.0578947 -0.000424332
 0.0613191 -0.000519309
 0.0649437 -0.00060819
 0.0687803 -0.000699343
 0.0728413 -0.000814127
 0.0771397 -0.000965395
 0.0816895 -0.00113355
 0.0865054 -0.00126262
 0.0916029 -0.00131153
 0.0969985 -0.00127019
   0.10271 -0.00114526
  0.108755 -0.000957695
  0.115153 -0.000721028
  0.121926 -0.000454451
  0.129095 -0.000217025
  0.136683 -5.90437e-05
  0.144715 1.50851e-05
  0.153216 -3.41349e-05
  0.162214 -0.00015761
  0.171739 -9.51731e-05
  0.181821 0.000205274
  0.192492 0.000622762
  0.203788 0.00126202
  0.215744  0.0020059
  0.228399  0.0027921
  0.241794 0.00367993
  0.255972 0.00426676
   0.27098 0.00413247
  0.286865 0.00336107
  0.304824 0.00216125
  0.324407 0.00090377
  0.343989 0.000254403
  0.363571 7.24737e-05
  0.383154 5.53829e-06
  0.402736 0.000400268
  0.422319 0.000998629
  0.441901 0.00127237
  0.461484 0.00164577
  0.481066 0.00180617
  0.500648 0.00158939
  0.520231 0.00140377
  0.539813 0.000877684
  0.559396 0.000683612
  0.578978 0.000816699
   0.59856 0.000676806
  0.618143 0.000660969
  0.637725  0.0010109
  0.657308  0.0013959
   0.67689 0.00149796
  0.696473 0.00126827
  0.716055 0.00136947
  0.735637 0.00202689
   0.75522 0.00253806
  0.774802 0.00253499
  0.794385 0.00240308
  0.813967 0.00207895
  0.833549 0.00129109
  0.853132 0.000220793
  0.872714 -0.000816002
  0.892297 -0.00167482
  0.911879 -0.00219397
  0.931462 -0.00240225
  0.951044 -0.00254688
  0.970626 -0.00271042
  0.990209 -0.0028176
   1.00979 -0.00280238
   1.02937 -0.00264708
   1.04896 -0.00255712
   1.06854 -0.00260018
   1.08812 -0.00261307
    1.1077 -0.00245135
   1.12729 -0.00212048
   1.14687 -0.00166328
   1.16645 -0.00109151
   1.18603 -0.000582312
   1.20562 -0.000349284
    1.2252 -0.000390719
   1.24478 -0.000561547
   1.26436 -0.00075973
   1.28395 -0.000836833
   1.30353 -0.000847287
   1.32311 -0.000886152
   1.34269 -0.00117412
   1.36228 -0.00133722
   1.38186 -0.000890481
   1.40144 -0.000400125
   1.42102 -0.000180383
   1.44061 -7.06722e-05
   1.46019 -1.88879e-05
   1.47977 -0.000105649
   1.49935 -0.000303276
   1.51894 -0.00073789
   1.53852  -0.001211
    1.5581 -0.00144417
   1.57768 -0.00112151
   1.59727 -0.000460107
   1.61685 0.000183107
   1.63643   0.000471
   1.65601 0.000106871
    1.6756 -0.000843544
   1.69518 -0.00145967
   1.71314 -0.00165784
   1.72902 -0.0022377
   1.74403 -0.0028991
   1.75821 -0.00338794
    1.7716 -0.00357034
   1.78426 -0.00345045
   1.79621 -0.00299177
   1.80751 -0.00228075
   1.81818 -0.0017028
   1.82826 -0.00156079
   1.83779 -0.0017597
   1.84679 -0.00199188
   1.85529 -0.00220662
   1.86332 -0.00230773
   1.87091 -0.00222126
   1.87808 -0.00201172
   1.88485 -0.00172145
   1.89125 -0.00139716
   1.89729 -0.0010941
     1.903 -0.000850596
    1.9084 -0.000675658
    1.9135 -0.000569653
   1.91831 -0.000526334
   1.92286 -0.000505218
   1.92716 -0.000476528
   1.93122 -0.000432834
   1.93506 -0.000364054
   1.93868 -0.000280507
   1.94211 -0.000195133
   1.94534 -0.000113954
    1.9484 -2.80931e-05
   1.95129 7.01649e-05
   1.95401 0.000183612
   1.95659 0.00030821
   1.95903 0.000431071
   1.96133 0.000543362
    1.9635 0.000645637
   1.96555 0.000741566
   1.96749 0.000832482
   1.96933 0.000917718
   1.97106 0.000995874
   1.97269 0.00106646
   1.97424 0.00112917
    1.9757 0.00118351
   1.97708  0.0012297
   1.97838   0.001267
   1.97961 0.00129407
   1.98077 0.00131096
   1.98187 0.00131873
   1.98291 0.00131833
   1.98389 0.00131028
   1.98482   0.001295
   1.98569 0.00127336
   1.98652 0.00124617
    1.9873 0.00121393
   1.98804 0.00117713
   1.98874 0.00113652
    1.9894 0.00109278
   1.99002 0.00104657
   1.99061 0.000998646
   1.99116 0.000949788
   1.99169 0.000900704
   1.99218 0.000852001
   1.99265 0.000804184
    1.9931 0.000756861
   1.99355 0.000708933
   1.99399 0.000660037
   1.99444 0.000610398
   1.99488 0.000560275
   1.99533 0.000509907
   1.99577 0.000459504
   1.99622 0.000409287
   1.99666 0.000359449
   1.99711 0.000310119
   1.99755 0.000261347
     1.998 0.000213111
   1.99844 0.00016533
   1.99889 0.000117888
   1.99933 7.06631e-05
   1.99978 2.35452e-05
         2          0
