         0          0
 0.0002225  0.0105512
 0.0006675  0.0316428
 0.0011125   0.052714
 0.0015575  0.0737449
 0.0020025  0.0947053
 0.0024475   0.115555
 0.0028925   0.136247
 0.0033375   0.156725
 0.0037825   0.176933
 0.0042275   0.196811
 0.0046725   0.216302
 0.0051175   0.235351
 0.0055625   0.253911
 0.0060075    0.27194
 0.0064525   0.289406
 0.0068975   0.306284
 0.0073476   0.322742
0.00781612   0.339209
0.00831203   0.355889
0.00883694   0.372711
0.00939255   0.389599
0.00998065   0.406477
 0.0106031   0.423269
  0.011262   0.439903
 0.0119594    0.45631
 0.0126977   0.472429
  0.013479   0.488203
 0.0143061   0.503589
 0.0151815   0.518549
 0.0161082   0.533057
  0.017089   0.547096
 0.0181271   0.560656
  0.019226   0.573735
 0.0203891   0.586335
 0.0216203   0.598463
 0.0229234   0.610131
 0.0243028   0.621353
 0.0257628   0.632149
 0.0273082    0.64254
  0.028944   0.652547
 0.0306754   0.662188
 0.0325081   0.671481
 0.0344479   0.680445
 0.0365012     0.6891
 0.0386746   0.697468
  0.040975   0.705566
   0.04341   0.713405
 0.0459873   0.720992
 0.0487154   0.728347
  0.051603   0.735514
 0.0546595   0.742539
 0.0578947   0.749441
 0.0613191   0.756219
 0.0649437   0.762872
 0.0687803   0.769406
 0.0728413   0.775857
 0.0771397   0.782289
 0.0816895   0.788712
 0.0865054   0.795122
 0.0916029   0.801553
 0.0969985   0.808046
   0.10271   0.814615
  0.108755   0.821235
  0.115153    0.82793
  0.121926   0.834719
  0.129095   0.841634
  0.136683    0.84878
  0.144715   0.856093
  0.153216   0.863491
  0.162214   0.870963
  0.171739   0.878497
  0.181821   0.886055
  0.192492   0.893666
  0.203788   0.901609
  0.215744   0.909881
  0.228399   0.917961
  0.241794   0.925921
  0.255972   0.934075
   0.27098   0.942604
  0.286865   0.951282
  0.304824   0.960463
  0.324407   0.970105
  0.343989    0.97935
  0.363571   0.987896
  0.383154   0.996378
  0.402736    1.00476
  0.422319    1.01255
  0.441901    1.01976
  0.461484    1.02658
  0.481066    1.03349
  0.500648    1.03999
  0.520231    1.04595
  0.539813    1.05196
  0.559396    1.05833
  0.578978    1.06459
   0.59856    1.07047
  0.618143    1.07614
  0.637725    1.08181
  0.657308    1.08719
   0.67689    1.09214
  0.696473    1.09675
  0.716055    1.10103
  0.735637    1.10503
   0.75522     1.1089
  0.774802     1.1127
  0.794385    1.11636
  0.813967    1.11996
  0.833549    1.12322
  0.853132    1.12602
  0.872714    1.12862
  0.892297    1.13101
  0.911879     1.1331
  0.931462    1.13469
  0.951044    1.13595
  0.970626    1.13701
  0.990209    1.13768
   1.00979    1.13776
   1.02937    1.13735
   1.04896    1.13675
   1.06854    1.13587
   1.08812    1.13454
    1.1077    1.13285
   1.12729    1.13081
   1.14687    1.12845
   1.16645    1.12574
   1.18603    1.12277
   1.20562    1.11961
    1.2252    1.11631
   1.24478    1.11298
   1.26436    1.10951
   1.28395    1.10565
   1.30353    1.10153
   1.32311    1.09718
   1.34269    1.09258
   1.36228    1.08784
   1.38186    1.08285
   1.40144    1.07765
   1.42102    1.07271
   1.44061    1.06759
   1.46019    1.06204
   1.47977    1.05598
   1.49935     1.0492
   1.51894    1.04225
   1.53852    1.03516
    1.5581    1.02811
   1.57768    1.02131
   1.59727    1.01441
   1.61685    1.00658
   1.63643   0.997899
   1.65601   0.988454
    1.6756    0.97815
   1.69518   0.968018
   1.71314   0.958882
   1.72902   0.950048
   1.74403    0.94151
   1.75821   0.933244
    1.7716   0.925196
   1.78426   0.917351
   1.79621   0.909424
   1.80751   0.901662
   1.81818   0.894289
   1.82826   0.887301
   1.83779   0.880538
   1.84679   0.873814
   1.85529   0.867125
   1.86332    0.86034
   1.87091   0.853487
   1.87808   0.846714
   1.88485   0.839979
   1.89125   0.833298
   1.89729   0.826754
     1.903   0.820326
    1.9084   0.813953
    1.9135   0.807592
   1.91831   0.801196
   1.92286   0.794758
   1.92716   0.788287
   1.93122   0.781764
   1.93506   0.775144
   1.93868   0.768362
   1.94211   0.761386
   1.94534    0.75423
    1.9484   0.746928
   1.95129   0.739498
   1.95401    0.73194
   1.95659   0.724236
   1.95903   0.716349
   1.96133    0.70825
    1.9635   0.699912
   1.96555   0.691303
   1.96749   0.682384
   1.96933   0.673119
   1.97106   0.663476
   1.97269   0.653432
   1.97424    0.64297
    1.9757   0.632076
   1.97708    0.62074
   1.97838   0.608953
   1.97961   0.596706
   1.98077   0.583991
   1.98187   0.570802
   1.98291   0.557137
   1.98389   0.542995
   1.98482   0.528385
   1.98569   0.513324
   1.98652   0.497835
    1.9873   0.481949
   1.98804    0.46571
   1.98874   0.449166
    1.9894   0.432377
   1.99002   0.415408
   1.99061   0.398331
   1.99116   0.381221
   1.99169   0.364156
   1.99218   0.347213
   1.99265   0.330466
    1.9931   0.313709
   1.99355   0.296506
   1.99399   0.278686
   1.99444   0.260273
   1.99488   0.241303
   1.99533   0.221817
   1.99577   0.201865
   1.99622   0.181505
   1.99666   0.160796
   1.99711   0.139801
   1.99755   0.118581
     1.998  0.0971926
   1.99844  0.0756861
   1.99889  0.0541038
   1.99933  0.0324779
   1.99978  0.0108298
         2          0
