         0          0
 0.0002225 -1.70909e-06
 0.0006675 -5.14331e-06
 0.0011125 -8.59859e-06
 0.0015575 -1.20393e-05
 0.0020025 -1.53885e-05
 0.0024475 -1.85352e-05
 0.0028925 -2.13488e-05
 0.0033375 -2.36939e-05
 0.0037825 -2.54447e-05
 0.0042275 -2.64935e-05
 0.0046725 -2.67387e-05
 0.0051175 -2.60884e-05
 0.0055625 -2.44975e-05
 0.0060075 -2.19568e-05
 0.0064525 -1.84218e-05
 0.0068975 -1.38671e-05
 0.0073476 -8.30026e-06
0.00781612 -1.63362e-06
0.00831203 6.13267e-06
0.00883694 1.46972e-05
0.00939255 2.35122e-05
0.00998065 3.1738e-05
 0.0106031 3.8177e-05
  0.011262 4.14573e-05
 0.0119594 4.00758e-05
 0.0126977 3.26798e-05
  0.013479 1.83176e-05
 0.0143061 -3.27599e-06
 0.0151815 -3.14236e-05
 0.0161082 -6.47594e-05
  0.017089 -0.000101022
 0.0181271 -0.000137218
  0.019226 -0.000170287
 0.0203891 -0.000197456
 0.0216203 -0.000216866
 0.0229234 -0.0002275
 0.0243028 -0.000228242
 0.0257628 -0.00021785
 0.0273082 -0.000196915
  0.028944 -0.000170826
 0.0306754 -0.000147487
 0.0325081 -0.000132333
 0.0344479 -0.000125763
 0.0365012 -0.00012683
 0.0386746 -0.00013384
  0.040975 -0.000148374
   0.04341 -0.000173115
 0.0459873 -0.000202824
 0.0487154 -0.000233591
  0.051603 -0.000272878
 0.0546595 -0.0003361
 0.0578947 -0.000423895
 0.0613191 -0.000519371
 0.0649437 -0.000608712
 0.0687803 -0.000700225
 0.0728413 -0.000815204
 0.0771397 -0.000966497
 0.0816895 -0.00113473
 0.0865054  -0.001264
 0.0916029 -0.00131312
 0.0969985 -0.00127208
   0.10271 -0.00114749
  0.108755 -0.000959929
  0.115153 -0.000723031
  0.121926 -0.000455988
  0.129095 -0.000217587
  0.136683 -5.8194e-05
  0.144715 1.75772e-05
  0.153216 -3.04569e-05
  0.162214 -0.000154191
  0.171739 -9.32352e-05
  0.181821 0.000205882
  0.192492 0.000622496
  0.203788 0.00126143
  0.215744 0.00200615
  0.228399 0.00279284
  0.241794 0.00368023
  0.255972 0.00426689
   0.27098 0.00413226
  0.286865 0.00336091
  0.304824 0.00216122
  0.324407 0.000902688
  0.343989 0.000253684
  0.363571 7.29735e-05
  0.383154 5.49503e-06
  0.402736 0.000399529
  0.422319 0.000998341
  0.441901 0.00127283
  0.461484 0.00164619
  0.481066 0.00180621
  0.500648 0.00158951
  0.520231 0.00140368
  0.539813 0.000877229
  0.559396 0.000683612
  0.578978 0.000817276
   0.59856 0.000676811
  0.618143 0.000660679
  0.637725  0.0010107
  0.657308 0.00139558
   0.67689 0.00149747
  0.696473 0.00126757
  0.716055  0.0013685
  0.735637 0.00202578
   0.75522 0.00253708
  0.774802 0.00253439
  0.794385 0.00240308
  0.813967 0.00207948
  0.833549 0.00129181
  0.853132 0.000221322
  0.872714 -0.000815545
  0.892297 -0.0016743
  0.911879 -0.00219353
  0.931462  -0.002402
  0.951044 -0.00254682
  0.970626 -0.00271044
  0.990209 -0.00281763
   1.00979 -0.00280218
   1.02937 -0.00264651
   1.04896 -0.00255624
   1.06854 -0.00259925
   1.08812 -0.00261245
    1.1077 -0.00245097
   1.12729 -0.00212021
   1.14687 -0.0016633
   1.16645 -0.00109171
   1.18603 -0.000582327
   1.20562 -0.000349205
    1.2252 -0.000390883
   1.24478 -0.000562047
   1.26436 -0.000760476
   1.28395 -0.000837697
   1.30353 -0.000848218
   1.32311 -0.000886734
   1.34269 -0.00117444
   1.36228 -0.00133748
   1.38186 -0.000890324
   1.40144 -0.000400065
   1.42102 -0.000180667
   1.44061 -7.07945e-05
   1.46019 -1.87039e-05
   1.47977 -0.000104758
   1.49935 -0.000302515
   1.51894 -0.000738023
   1.53852 -0.00121143
    1.5581 -0.00144416
   1.57768 -0.00112066
   1.59727 -0.000459335
   1.61685 0.000182564
   1.63643 0.000469257
   1.65601 0.000105346
    1.6756 -0.000843719
   1.69518 -0.00145935
   1.71314 -0.00165816
   1.72902 -0.00223847
   1.74403 -0.00289983
   1.75821 -0.00338888
    1.7716 -0.00357035
   1.78426 -0.00344936
   1.79621 -0.00299079
   1.80751 -0.00227965
   1.81818 -0.00170149
   1.82826 -0.00155974
   1.83779 -0.0017587
   1.84679 -0.00199081
   1.85529 -0.0022056
   1.86332 -0.00230644
   1.87091 -0.0022199
   1.87808 -0.00201075
   1.88485 -0.00172109
   1.89125 -0.00139754
   1.89729 -0.00109507
     1.903 -0.000851656
    1.9084 -0.00067643
    1.9135 -0.00057022
   1.91831 -0.000526905
   1.92286 -0.000505759
   1.92716 -0.0004768
   1.93122 -0.000432668
   1.93506 -0.00036359
   1.93868 -0.000280014
   1.94211 -0.000194827
   1.94534 -0.000113809
    1.9484 -2.78033e-05
   1.95129 7.08053e-05
   1.95401 0.00018456
   1.95659 0.000309349
   1.95903 0.000432354
   1.96133 0.000544736
    1.9635 0.000646943
   1.96555 0.000742616
   1.96749 0.000833097
   1.96933 0.000917817
   1.97106 0.000995546
   1.97269 0.00106585
   1.97424 0.00112844
    1.9757 0.00118278
   1.97708 0.00122898
   1.97838 0.00126628
   1.97961 0.00129335
   1.98077  0.0013102
   1.98187 0.00131788
   1.98291 0.00131736
   1.98389 0.00130922
   1.98482  0.0012939
   1.98569 0.00127222
   1.98652 0.00124502
    1.9873 0.00121284
   1.98804 0.00117613
   1.98874 0.00113561
    1.9894 0.00109197
   1.99002 0.00104586
   1.99061 0.000998046
   1.99116 0.000949299
   1.99169 0.000900315
   1.99218 0.000851699
   1.99265 0.000803944
    1.9931 0.000756669
   1.99355 0.000708791
   1.99399 0.000659945
   1.99444 0.00061035
   1.99488 0.000560261
   1.99533 0.000509919
   1.99577 0.000459539
   1.99622 0.000409338
   1.99666 0.00035951
   1.99711 0.000310183
   1.99755 0.000261409
     1.998 0.000213166
   1.99844 0.000165376
   1.99889 0.000117923
   1.99933 7.06844e-05
   1.99978 2.35524e-05
         2          0
