         0          0
 0.0002225 -8.99115e-06
 0.0006675 -0.000171239
 0.0011125 -0.000768958
 0.0015575 -0.00208651
 0.0020025 -0.00436716
 0.0024475 -0.00777378
 0.0028925 -0.0123581
 0.0033375 -0.0180478
 0.0037825 -0.0246555
 0.0042275 -0.0319061
 0.0046725 -0.0394751
 0.0051175 -0.0470298
 0.0055625 -0.0542631
 0.0060075 -0.0609191
 0.0064525 -0.0668062
 0.0068975 -0.0718001
 0.0073476 -0.0758849
0.00781612 -0.0791059
0.00831203 -0.0814172
0.00883694 -0.0827409
0.00939255 -0.0830452
0.00998065 -0.0823469
 0.0106031 -0.0807087
  0.011262 -0.0782326
 0.0119594 -0.0750497
 0.0126977 -0.0713091
  0.013479 -0.0671658
 0.0143061   -0.06277
 0.0151815 -0.0582585
 0.0161082 -0.0537492
  0.017089 -0.0493372
 0.0181271 -0.0450951
  0.019226 -0.0410736
 0.0203891 -0.0373041
 0.0216203 -0.0338022
 0.0229234 -0.0305709
 0.0243028 -0.0276039
 0.0257628 -0.0248885
 0.0273082 -0.0224087
  0.028944 -0.0201473
 0.0306754 -0.0180871
 0.0325081 -0.0162115
 0.0344479 -0.0145046
 0.0365012 -0.0129524
 0.0386746 -0.0115437
  0.040975 -0.0102686
   0.04341 -0.00911605
 0.0459873 -0.00807448
 0.0487154 -0.00713454
  0.051603 -0.00628967
 0.0546595 -0.00553387
 0.0578947 -0.00485804
 0.0613191 -0.00425166
 0.0649437 -0.00370919
 0.0687803 -0.00322467
 0.0728413 -0.00278841
 0.0771397 -0.00239551
 0.0816895 -0.00204198
 0.0865054 -0.00172123
 0.0916029 -0.00142789
 0.0969985 -0.00115986
   0.10271 -0.0009178
  0.108755 -0.000700529
  0.115153 -0.000499627
  0.121926 -0.000310962
  0.129095 -0.000135669
  0.136683 2.48555e-05
  0.144715 0.000172921
  0.153216 0.000314491
  0.162214 0.000450263
  0.171739 0.000576638
  0.181821 0.000688383
  0.192492 0.00079718
  0.203788 0.000896004
  0.215744 0.000988583
  0.228399 0.00108262
  0.241794 0.00116561
  0.255972 0.00125294
   0.27098 0.00133012
  0.286865 0.00142044
  0.304824 0.00149275
  0.324407 0.00154387
  0.343989  0.0016221
  0.363571 0.00168299
  0.383154 0.00174874
  0.402736 0.00180243
  0.422319 0.00186053
  0.441901 0.00191686
  0.461484 0.00196016
  0.481066 0.00200198
  0.500648 0.00204666
  0.520231 0.00209334
  0.539813 0.00214092
  0.559396 0.00217706
  0.578978 0.00220855
   0.59856 0.00224006
  0.618143 0.00226986
  0.637725  0.0022978
  0.657308 0.00232227
   0.67689 0.00234719
  0.696473 0.00237258
  0.716055 0.00239495
  0.735637 0.00241379
   0.75522 0.00243566
  0.774802 0.00245511
  0.794385 0.00246852
  0.813967 0.00248297
  0.833549 0.00249806
  0.853132 0.00251197
  0.872714 0.00252011
  0.892297 0.00252938
  0.911879 0.00253549
  0.931462 0.00253958
  0.951044 0.00254066
  0.970626 0.00254051
  0.990209  0.0025431
   1.00979 0.00254491
   1.02937 0.00254658
   1.04896 0.00254422
   1.06854 0.00253935
   1.08812 0.00253178
    1.1077 0.00252383
   1.12729 0.00251818
   1.14687 0.00250697
   1.16645 0.00249091
   1.18603  0.0024792
   1.20562 0.00246681
    1.2252 0.00244769
   1.24478 0.00242892
   1.26436 0.00240816
   1.28395  0.0023863
   1.30353 0.00236466
   1.32311 0.00234187
   1.34269 0.00231594
   1.36228 0.00228807
   1.38186 0.00225886
   1.40144 0.00222721
   1.42102 0.00219207
   1.44061 0.00215965
   1.46019 0.00212073
   1.47977 0.00208305
   1.49935 0.00204774
   1.51894 0.00200763
   1.53852 0.00195857
    1.5581 0.00190489
   1.57768 0.00184491
   1.59727 0.00179284
   1.61685 0.00173609
   1.63643 0.00166349
   1.65601  0.0015898
    1.6756 0.00150812
   1.69518 0.00147066
   1.71314 0.00140209
   1.72902 0.00130072
   1.74403 0.00122744
   1.75821 0.00113683
    1.7716 0.00104623
   1.78426 0.000953249
   1.79621 0.000854922
   1.80751 0.00074893
   1.81818 0.000635929
   1.82826 0.000517615
   1.83779 0.000393321
   1.84679 0.000259763
   1.85529 0.000122348
   1.86332 -2.2385e-05
   1.87091 -0.0001784
   1.87808 -0.000351194
   1.88485 -0.00054002
   1.89125 -0.000744844
   1.89729 -0.000971324
     1.903 -0.00121533
    1.9084 -0.00147919
    1.9135 -0.00177235
   1.91831 -0.0020947
   1.92286 -0.00244748
   1.92716 -0.00283654
   1.93122 -0.00326751
   1.93506 -0.00374901
   1.93868 -0.00428826
   1.94211 -0.00488936
   1.94534 -0.00556108
    1.9484 -0.00631273
   1.95129 -0.00715064
   1.95401 -0.00808251
   1.95659 -0.00911819
   1.95903 -0.0102675
   1.96133 -0.0115387
    1.9635 -0.0129408
   1.96555 -0.0144856
   1.96749 -0.0161863
   1.96933 -0.0180566
   1.97106 -0.0201108
   1.97269 -0.0223653
   1.97424 -0.0248374
    1.9757 -0.0275443
   1.97708 -0.0305015
   1.97838  -0.033721
   1.97961 -0.0372091
   1.98077  -0.040963
   1.98187  -0.044968
   1.98291 -0.0491933
   1.98389 -0.0535892
   1.98482  -0.058084
   1.98569 -0.0625832
   1.98652 -0.0669697
    1.9873 -0.0711075
   1.98804 -0.0748471
   1.98874 -0.0780338
    1.9894 -0.0805187
   1.99002 -0.0821705
   1.99061 -0.0828865
   1.99116 -0.0826031
   1.99169 -0.0813023
   1.99218 -0.0790146
   1.99265 -0.0758167
    1.9931 -0.0717536
   1.99355 -0.0667798
   1.99399 -0.0609103
   1.99444 -0.0542686
   1.99488 -0.0470456
   1.99533 -0.0394972
   1.99577 -0.0319304
   1.99622 -0.0246788
   1.99666 -0.0180678
   1.99711 -0.0123734
   1.99755 -0.00778429
     1.998 -0.00437344
   1.99844 -0.00208964
   1.99889 -0.000770143
   1.99933 -0.000171509
   1.99978 -9.00562e-06
         2          0
