         0          0
 0.0002225 -0.000380072
 0.0006675 -0.000940043
 0.0011125 -0.00133499
 0.0015575 -0.00160086
 0.0020025 -0.00176575
 0.0024475 -0.00185254
 0.0028925 -0.00188024
 0.0033375 -0.00186399
 0.0037825 -0.00181556
 0.0042275 -0.00174403
 0.0046725 -0.0016564
 0.0051175 -0.00155797
 0.0055625 -0.00145275
 0.0060075 -0.00134372
 0.0064525 -0.00123271
 0.0068975 -0.00112042
 0.0073476 -0.00100627
0.00781612 -0.000889036
0.00831203 -0.000768469
0.00883694 -0.000644766
0.00939255 -0.000518108
0.00998065 -0.000389156
 0.0106031 -0.000258803
  0.011262 -0.000128097
 0.0119594 1.73668e-06
 0.0126977 0.000129273
  0.013479 0.000252901
 0.0143061 0.000370869
 0.0151815 0.000481343
 0.0161082 0.000582492
  0.017089 0.000672577
 0.0181271 0.000750055
  0.019226 0.000813655
 0.0203891 0.000862448
 0.0216203 0.000895885
 0.0229234 0.000913841
 0.0243028 0.000916642
 0.0257628 0.000905053
 0.0273082 0.000880239
  0.028944 0.000843718
 0.0306754 0.000797282
 0.0325081 0.000742929
 0.0344479 0.000682781
 0.0365012 0.000619026
 0.0386746 0.000553862
  0.040975 0.00048942
   0.04341 0.000427669
 0.0459873 0.000370311
 0.0487154 0.000318671
  0.051603 0.000273608
 0.0546595 0.000235596
 0.0578947 0.000204786
 0.0613191 0.000180733
 0.0649437 0.000162395
 0.0687803 0.000148588
 0.0728413 0.00013816
 0.0771397 0.000130084
 0.0816895 0.000123613
 0.0865054 0.000118132
 0.0916029 0.000113089
 0.0969985 0.00010791
   0.10271 0.000102208
  0.108755 9.58343e-05
  0.115153 8.91153e-05
  0.121926 8.2654e-05
  0.129095 7.6213e-05
  0.136683 6.97066e-05
  0.144715 6.37395e-05
  0.153216 5.81377e-05
  0.162214  5.268e-05
  0.171739 4.75524e-05
  0.181821 4.35777e-05
  0.192492 4.02308e-05
  0.203788 3.64526e-05
  0.215744 3.33492e-05
  0.228399 3.15519e-05
  0.241794 3.01066e-05
  0.255972 3.01293e-05
   0.27098 2.57973e-05
  0.286865 2.50377e-05
  0.304824 3.59183e-05
  0.324407 2.18756e-05
  0.343989 1.43924e-05
  0.363571 1.5885e-05
  0.383154 1.68624e-05
  0.402736 1.6618e-05
  0.422319 1.37017e-05
  0.441901 1.16607e-05
  0.461484 1.02042e-05
  0.481066 1.07171e-05
  0.500648 1.2011e-05
  0.520231 1.07655e-05
  0.539813 8.79412e-06
  0.559396 9.28467e-06
  0.578978 9.75905e-06
   0.59856 9.60423e-06
  0.618143 1.0053e-05
  0.637725 1.09762e-05
  0.657308 1.23243e-05
   0.67689 1.38663e-05
  0.696473 1.39706e-05
  0.716055 1.4437e-05
  0.735637 1.56011e-05
   0.75522 1.56437e-05
  0.774802 1.51238e-05
  0.794385 1.45496e-05
  0.813967 1.39391e-05
  0.833549 1.36689e-05
  0.853132 1.35976e-05
  0.872714 1.33453e-05
  0.892297 1.28325e-05
  0.911879 1.24208e-05
  0.931462 1.27252e-05
  0.951044 1.30268e-05
  0.970626 1.33451e-05
  0.990209 1.35952e-05
   1.00979 1.36394e-05
   1.02937 1.35778e-05
   1.04896 1.32732e-05
   1.06854 1.30382e-05
   1.08812 1.3145e-05
    1.1077 1.33828e-05
   1.12729 1.36779e-05
   1.14687 1.38357e-05
   1.16645 1.40313e-05
   1.18603 1.47926e-05
   1.20562 1.55933e-05
    1.2252 1.58868e-05
   1.24478 1.54958e-05
   1.26436 1.48592e-05
   1.28395 1.45022e-05
   1.30353 1.37662e-05
   1.32311  1.329e-05
   1.34269 1.26897e-05
   1.36228 1.27888e-05
   1.38186 1.33072e-05
   1.40144 1.37272e-05
   1.42102 1.27027e-05
   1.44061 1.17116e-05
   1.46019 1.08272e-05
   1.47977 9.02336e-06
   1.49935 8.36612e-06
   1.51894 7.87082e-06
   1.53852 8.7487e-06
    1.5581 1.02851e-05
   1.57768 1.20507e-05
   1.59727 1.52966e-05
   1.61685 1.68166e-05
   1.63643 1.78716e-05
   1.65601 1.81363e-05
    1.6756 2.2829e-05
   1.69518 3.28726e-05
   1.71314 1.89371e-05
   1.72902 1.76733e-05
   1.74403 2.18298e-05
   1.75821 2.35149e-05
    1.7716 2.85429e-05
   1.78426 3.37437e-05
   1.79621 3.85356e-05
   1.80751 4.29022e-05
   1.81818 4.73695e-05
   1.82826 5.18425e-05
   1.83779 5.58164e-05
   1.84679 5.94753e-05
   1.85529 6.38743e-05
   1.86332  6.912e-05
   1.87091 7.4855e-05
   1.87808 8.14858e-05
   1.88485 8.86885e-05
   1.89125 9.57143e-05
   1.89729 0.000102353
     1.903 0.000108463
    1.9084 0.00011406
    1.9135 0.000119475
   1.91831 0.000125269
   1.92286 0.000131769
   1.92716 0.000139785
   1.93122 0.000150497
   1.93506 0.000165135
   1.93868 0.000184884
   1.94211 0.000210584
   1.94534 0.000242725
    1.9484 0.000281502
   1.95129 0.000326837
   1.95401 0.000378441
   1.95659 0.000435691
   1.95903 0.000497436
   1.96133 0.000561955
    1.9635 0.000627252
   1.96555 0.00069123
   1.96749 0.000751699
   1.96933 0.000806381
   1.97106 0.000853023
   1.97269 0.00088956
   1.97424 0.00091422
    1.9757 0.000925544
   1.97708 0.000922417
   1.97838 0.000904102
   1.97961 0.000870268
   1.98077 0.000821017
   1.98187 0.000756879
   1.98291 0.000678787
   1.98389 0.000588035
   1.98482 0.000486199
   1.98569 0.000375041
   1.98652 0.000256414
    1.9873 0.000132163
   1.98804 4.04509e-06
   1.98874 -0.000126338
    1.9894 -0.000257573
   1.99002 -0.000388448
   1.99061 -0.000517925
   1.99116 -0.000645115
   1.99169 -0.000769362
   1.99218 -0.000890488
   1.99265 -0.00100829
    1.9931 -0.00112303
   1.99355 -0.00123593
   1.99399 -0.00134756
   1.99444 -0.00145724
   1.99488 -0.00156312
   1.99533 -0.00166219
   1.99577 -0.00175044
   1.99622 -0.00182251
   1.99666 -0.00187139
   1.99711 -0.00188794
   1.99755 -0.00186032
     1.998 -0.00177331
   1.99844 -0.00160783
   1.99889 -0.00134087
   1.99933 -0.00094422
   1.99978 -0.00038177
         2          0
