         0          0
 0.0002225   -8.30286
 0.0006675   -23.9759
 0.0011125   -45.4162
 0.0015575   -79.0436
 0.0020025   -130.202
 0.0024475   -202.518
 0.0028925   -297.303
 0.0033375   -413.305
 0.0037825     -546.9
 0.0042275   -692.662
 0.0046725   -844.158
 0.0051175   -994.767
 0.0055625   -1138.39
 0.0060075   -1269.97
 0.0064525   -1385.71
 0.0068975    -1484.6
 0.0073476   -1567.41
0.00781612   -1631.53
0.00831203   -1675.04
0.00883694   -1698.27
0.00939255   -1700.61
0.00998065   -1682.46
 0.0106031   -1645.13
  0.011262   -1590.77
 0.0119594   -1522.09
 0.0126977    -1442.2
  0.013479   -1354.32
 0.0143061   -1261.55
 0.0151815   -1166.74
 0.0161082   -1072.35
  0.017089   -980.344
 0.0181271   -892.244
  0.019226   -809.112
 0.0203891   -731.607
 0.0216203    -660.05
 0.0229234   -594.495
 0.0243028   -534.804
 0.0257628   -480.703
 0.0273082   -431.826
  0.028944   -387.786
 0.0306754   -348.186
 0.0325081   -312.631
 0.0344479   -280.737
 0.0365012   -252.151
 0.0386746   -226.572
  0.040975   -203.725
   0.04341    -183.31
 0.0459873   -165.052
 0.0487154    -148.73
  0.051603   -134.167
 0.0546595   -121.204
 0.0578947   -109.651
 0.0613191   -99.3214
 0.0649437   -90.1116
 0.0687803   -81.9141
 0.0728413    -74.573
 0.0771397   -68.0101
 0.0816895   -62.1566
 0.0865054   -56.9006
 0.0916029   -52.1514
 0.0969985    -47.881
   0.10271   -44.0824
  0.108755   -40.7381
  0.115153   -37.7052
  0.121926   -34.8929
  0.129095   -32.3299
  0.136683   -30.0177
  0.144715   -27.9081
  0.153216   -25.9397
  0.162214   -24.1052
  0.171739    -22.432
  0.181821   -20.9821
  0.192492   -19.5889
  0.203788   -18.3356
  0.215744   -17.1599
  0.228399   -15.9846
  0.241794   -14.9993
  0.255972   -13.9355
   0.27098    -13.107
  0.286865   -12.2904
  0.304824   -10.9904
  0.324407    -10.442
  0.343989   -9.88091
  0.363571   -9.39798
  0.383154   -8.79301
  0.402736   -8.35072
  0.422319   -7.88396
  0.441901   -7.42496
  0.461484   -7.15443
  0.481066   -6.86645
  0.500648    -6.4949
  0.520231   -6.13508
  0.539813   -5.75914
  0.559396   -5.47675
  0.578978    -5.2136
   0.59856   -4.94648
  0.618143   -4.70543
  0.637725   -4.46964
  0.657308   -4.28654
   0.67689   -4.09968
  0.696473   -3.90712
  0.716055   -3.74357
  0.735637   -3.61668
   0.75522    -3.4326
  0.774802   -3.27675
  0.794385   -3.22131
  0.813967   -3.14309
  0.833549   -3.03024
  0.853132   -2.91136
  0.872714   -2.87239
  0.892297   -2.81172
  0.911879   -2.80357
  0.931462    -2.8033
  0.951044   -2.82998
  0.970626   -2.85475
  0.990209   -2.81365
   1.00979   -2.77371
   1.02937   -2.74023
   1.04896   -2.75822
   1.06854   -2.78718
   1.08812   -2.84364
    1.1077   -2.89838
   1.12729   -2.89031
   1.14687   -2.94278
   1.16645   -3.06884
   1.18603   -3.11055
   1.20562   -3.14391
    1.2252   -3.29052
   1.24478   -3.42254
   1.26436   -3.55764
   1.28395   -3.70232
   1.30353   -3.85657
   1.32311   -4.03329
   1.34269   -4.24013
   1.36228   -4.45187
   1.38186   -4.67671
   1.40144   -4.93311
   1.42102   -5.22692
   1.44061   -5.46677
   1.46019   -5.80478
   1.47977   -6.12778
   1.49935   -6.40982
   1.51894   -6.75513
   1.53852   -7.18164
    1.5581    -7.6113
   1.57768   -8.10078
   1.59727   -8.43535
   1.61685   -8.84692
   1.63643   -9.49692
   1.65601    -10.136
    1.6756   -10.7553
   1.69518   -11.1463
   1.71314   -12.4204
   1.72902   -13.3828
   1.74403   -14.1159
   1.75821   -15.1732
    1.7716   -16.2077
   1.78426   -17.2754
   1.79621   -18.4409
   1.80751   -19.7455
   1.81818   -21.1664
   1.82826    -22.686
   1.83779   -24.3471
   1.84679   -26.1872
   1.85529   -28.1049
   1.86332    -30.138
   1.87091   -32.3629
   1.87808   -34.8814
   1.88485   -37.6966
   1.89125   -40.8131
   1.89729   -44.3173
     1.903   -48.1623
    1.9084   -52.3923
    1.9135   -57.1343
   1.91831     -62.41
   1.92286   -68.2569
   1.92716   -74.7684
   1.93122   -82.0264
   1.93506   -90.1691
   1.93868   -99.3047
   1.94211   -109.512
   1.94534   -120.969
    1.9484   -133.861
   1.95129   -148.315
   1.95401   -164.506
   1.95659   -182.654
   1.95903       -203
   1.96133   -225.778
    1.9635   -251.237
   1.96555   -279.684
   1.96749   -311.448
   1.96933   -346.879
   1.97106   -386.344
   1.97269   -430.234
   1.97424   -478.954
    1.9757   -532.893
   1.97708   -592.398
   1.97838   -657.737
   1.97961   -729.044
   1.98077   -806.264
   1.98187   -889.089
   1.98291   -976.876
   1.98389   -1068.58
   1.98482   -1162.71
   1.98569    -1257.3
   1.98652    -1349.9
    1.9873    -1437.7
   1.98804    -1517.6
   1.98874   -1586.38
    1.9894   -1640.96
   1.99002   -1678.59
   1.99061   -1697.14
   1.99116   -1695.25
   1.99169   -1672.51
   1.99218   -1629.51
   1.99265   -1565.88
    1.9931   -1483.53
   1.99355   -1385.09
   1.99399   -1269.73
   1.99444   -1138.48
   1.99488   -995.093
   1.99533   -844.638
   1.99577   -693.216
   1.99622   -547.458
   1.99666   -413.817
   1.99711   -297.738
   1.99755   -202.864
     1.998   -130.465
   1.99844   -79.2363
   1.99889   -45.5519
   1.99933    -24.062
   1.99978   -8.33643
         2          0
