         0          0
 0.0002225 0.000133145
 0.0006675 0.00119678
 0.0011125 0.00332027
 0.0015575 0.00649578
 0.0020025  0.0107077
 0.0024475  0.0159292
 0.0028925  0.0221203
 0.0033375  0.0292264
 0.0037825  0.0371786
 0.0042275  0.0458953
 0.0046725   0.055285
 0.0051175  0.0652497
 0.0055625  0.0756884
 0.0060075  0.0865006
 0.0064525  0.0975898
 0.0068975   0.108865
 0.0073476   0.120378
0.00781612   0.132395
0.00831203   0.145064
0.00883694   0.158335
0.00939255   0.172147
0.00998065   0.186432
 0.0106031   0.201113
  0.011262   0.216112
 0.0119594   0.231349
 0.0126977   0.246744
  0.013479   0.262223
 0.0143061   0.277713
 0.0151815   0.293153
 0.0161082   0.308484
  0.017089   0.323658
 0.0181271   0.338634
  0.019226    0.35338
 0.0203891   0.367868
 0.0216203   0.382078
 0.0229234   0.395997
 0.0243028   0.409614
 0.0257628   0.422926
 0.0273082   0.435931
  0.028944   0.448632
 0.0306754   0.461034
 0.0325081   0.473146
 0.0344479    0.48498
 0.0365012    0.49655
 0.0386746    0.50787
  0.040975    0.51896
   0.04341   0.529838
 0.0459873   0.540526
 0.0487154   0.551047
  0.051603   0.561424
 0.0546595   0.571681
 0.0578947   0.581845
 0.0613191   0.591939
 0.0649437    0.60199
 0.0687803   0.612022
 0.0728413    0.62206
 0.0771397   0.632128
 0.0816895   0.642249
 0.0865054   0.652447
 0.0916029   0.662741
 0.0969985   0.673154
   0.10271   0.683708
  0.108755   0.694423
  0.115153   0.705311
  0.121926   0.716381
  0.129095   0.727646
  0.136683   0.739122
  0.144715   0.750818
  0.153216   0.762746
  0.162214   0.774919
  0.171739    0.78736
  0.181821   0.800091
  0.192492   0.813114
  0.203788   0.826448
  0.215744   0.840097
  0.228399    0.85407
  0.241794   0.868403
  0.255972     0.8831
   0.27098   0.898224
  0.286865   0.913782
  0.304824   0.930939
  0.324407   0.949128
  0.343989   0.966814
  0.363571   0.983993
  0.383154    1.00063
  0.402736    1.01682
  0.422319    1.03257
  0.441901    1.04792
  0.461484    1.06293
  0.481066    1.07752
  0.500648    1.09165
  0.520231    1.10534
  0.539813    1.11861
  0.559396    1.13153
  0.578978    1.14409
   0.59856    1.15629
  0.618143    1.16814
  0.637725    1.17963
  0.657308    1.19074
   0.67689    1.20145
  0.696473    1.21172
  0.716055    1.22156
  0.735637    1.23094
   0.75522    1.23981
  0.774802    1.24819
  0.794385    1.25607
  0.813967    1.26338
  0.833549    1.27007
  0.853132    1.27613
  0.872714    1.28158
  0.892297    1.28635
  0.911879    1.29044
  0.931462     1.2938
  0.951044    1.29638
  0.970626    1.29813
  0.990209    1.29901
   1.00979    1.29903
   1.02937    1.29823
   1.04896    1.29664
   1.06854    1.29428
   1.08812    1.29114
    1.1077    1.28725
   1.12729    1.28261
   1.14687     1.2773
   1.16645    1.27134
   1.18603    1.26474
   1.20562    1.25755
    1.2252    1.24984
   1.24478    1.24162
   1.26436    1.23291
   1.28395    1.22373
   1.30353    1.21409
   1.32311    1.20404
   1.34269    1.19359
   1.36228    1.18274
   1.38186    1.17151
   1.40144     1.1599
   1.42102    1.14791
   1.44061    1.13552
   1.46019    1.12275
   1.47977    1.10958
   1.49935    1.09597
   1.51894    1.08196
   1.53852    1.06755
    1.5581    1.05267
   1.57768    1.03729
   1.59727    1.02133
   1.61685    1.00487
   1.63643   0.987938
   1.65601   0.970429
    1.6756    0.95227
   1.69518   0.933441
   1.71314    0.91568
   1.72902    0.89961
   1.74403   0.883972
   1.75821   0.868807
    1.7716   0.854054
   1.78426   0.839695
   1.79621   0.825727
   1.80751   0.812135
   1.81818   0.798893
   1.82826   0.785974
   1.83779   0.773357
   1.84679   0.761022
   1.85529   0.748945
   1.86332   0.737116
   1.87091   0.725532
   1.87808   0.714187
   1.88485   0.703067
   1.89125   0.692152
   1.89729   0.681423
     1.903   0.670855
    1.9084   0.660426
    1.9135   0.650119
   1.91831   0.639909
   1.92286   0.629775
   1.92716   0.619695
   1.93122   0.609648
   1.93506    0.59961
   1.93868    0.58956
   1.94211   0.579471
   1.94534    0.56932
    1.9484   0.559083
   1.95129   0.548733
   1.95401   0.538246
   1.95659   0.527597
   1.95903   0.516764
   1.96133   0.505726
    1.9635    0.49446
   1.96555    0.48295
   1.96749   0.471179
   1.96933   0.459132
   1.97106   0.446798
   1.97269   0.434167
   1.97424   0.421233
    1.9757   0.407994
   1.97708    0.39445
   1.97838   0.380605
   1.97961   0.366469
   1.98077   0.352055
   1.98187   0.337384
   1.98291   0.322482
   1.98389   0.307381
   1.98482   0.292123
   1.98569   0.276757
   1.98652   0.261337
    1.9873   0.245929
   1.98804   0.230601
   1.98874    0.21543
    1.9894   0.200493
   1.99002   0.185871
   1.99061   0.171643
   1.99116   0.157884
   1.99169   0.144662
   1.99218   0.132037
   1.99265    0.12006
    1.9931   0.108585
   1.99355  0.0973451
   1.99399   0.086289
   1.99444  0.0755076
   1.99488  0.0650974
   1.99533  0.0551588
   1.99577  0.0457925
   1.99622  0.0370968
   1.99666  0.0291631
   1.99711   0.022073
   1.99755  0.0158954
     1.998  0.0106851
   1.99844 0.00648217
   1.99889 0.00331334
   1.99933 0.00119429
   1.99978 0.000132868
         2          0
