         0          0
 0.0002225 1.05599e-08
 0.0006675 9.18504e-08
 0.0011125 2.47295e-07
 0.0015575 4.67253e-07
 0.0020025 7.38733e-07
 0.0024475 1.0458e-06
 0.0028925 1.37111e-06
 0.0033375 1.6981e-06
 0.0037825 2.01315e-06
 0.0042275 2.30725e-06
 0.0046725 2.57686e-06
 0.0051175 2.82401e-06
 0.0055625 3.05562e-06
 0.0060075 3.28225e-06
 0.0064525 3.51665e-06
 0.0068975 3.77222e-06
 0.0073476 4.06524e-06
0.00781612 4.41944e-06
0.00831203 4.86123e-06
0.00883694 5.41531e-06
0.00939255 6.10877e-06
0.00998065 6.97104e-06
 0.0106031 8.03376e-06
  0.011262 9.33086e-06
 0.0119594 1.08992e-05
 0.0126977 1.27784e-05
  0.013479 1.50112e-05
 0.0143061 1.7642e-05
 0.0151815 2.07142e-05
 0.0161082 2.42681e-05
  0.017089  2.834e-05
 0.0181271  3.296e-05
  0.019226 3.81534e-05
 0.0203891 4.39432e-05
 0.0216203 5.03541e-05
 0.0229234 5.74076e-05
 0.0243028 6.51264e-05
 0.0257628 7.35435e-05
 0.0273082 8.26898e-05
  0.028944 9.25759e-05
 0.0306754 0.00010321
 0.0325081 0.000114647
 0.0344479 0.000126983
 0.0365012 0.000140288
 0.0386746 0.000154562
  0.040975 0.000169774
   0.04341 0.000185864
 0.0459873 0.000202813
 0.0487154 0.000220735
  0.051603 0.000239741
 0.0546595 0.00025976
 0.0578947 0.000280435
 0.0613191 0.000301132
 0.0649437 0.000321183
 0.0687803 0.000340039
 0.0728413 0.000357129
 0.0771397 0.000371706
 0.0816895 0.000383018
 0.0865054 0.000391029
 0.0916029 0.000396654
 0.0969985 0.000401069
   0.10271 0.000404778
  0.108755 0.00040789
  0.115153 0.000411065
  0.121926 0.00041624
  0.129095 0.000426862
  0.136683 0.000447119
  0.144715 0.000480474
  0.153216 0.000524742
  0.162214 0.000573425
  0.171739 0.000622468
  0.181821 0.000673712
  0.192492 0.000729355
  0.203788 0.000788345
  0.215744 0.000844336
  0.228399 0.000892568
  0.241794 0.000944232
  0.255972 0.000994031
   0.27098 0.00102208
  0.286865 0.00102085
  0.304824 0.00100691
  0.324407 0.00102001
  0.343989 0.00105007
  0.363571 0.00107321
  0.383154 0.00109705
  0.402736 0.00111945
  0.422319 0.00113391
  0.441901 0.00114533
  0.461484 0.00116075
  0.481066 0.00116174
  0.500648 0.00113988
  0.520231 0.00109656
  0.539813  0.0010489
  0.559396 0.00100891
  0.578978 0.000949308
   0.59856 0.000848903
  0.618143 0.000720587
  0.637725 0.000588469
  0.657308 0.000473738
   0.67689 0.000365197
  0.696473 0.000259961
  0.716055 0.000158865
  0.735637 6.72723e-05
   0.75522 -1.68679e-05
  0.774802 -0.000115951
  0.794385 -0.000218572
  0.813967 -0.000305506
  0.833549 -0.000359076
  0.853132 -0.000388965
  0.872714 -0.000435978
  0.892297 -0.0004837
  0.911879 -0.000520468
  0.931462 -0.000548069
  0.951044 -0.000594047
  0.970626 -0.000664637
  0.990209 -0.000727887
   1.00979 -0.000776566
   1.02937 -0.000820209
   1.04896 -0.000845086
   1.06854 -0.000854329
   1.08812 -0.000864821
    1.1077 -0.000899759
   1.12729 -0.000944459
   1.14687 -0.000980531
   1.16645 -0.000999426
   1.18603 -0.0010014
   1.20562 -0.000995869
    1.2252 -0.000990187
   1.24478 -0.000984473
   1.26436 -0.00096954
   1.28395 -0.00095798
   1.30353 -0.000960273
   1.32311 -0.000953287
   1.34269 -0.000950755
   1.36228 -0.000953597
   1.38186 -0.000944647
   1.40144 -0.000944691
   1.42102 -0.000929394
   1.44061 -0.000895146
   1.46019 -0.000870021
   1.47977 -0.000868732
   1.49935 -0.000909735
   1.51894 -0.00097157
   1.53852 -0.00103995
    1.5581 -0.00111266
   1.57768 -0.00118349
   1.59727 -0.00123191
   1.61685 -0.00125908
   1.63643 -0.00125048
   1.65601 -0.00121905
    1.6756 -0.00119056
   1.69518 -0.00112372
   1.71314 -0.00101763
   1.72902 -0.000889415
   1.74403 -0.000756614
   1.75821 -0.000650636
    1.7716 -0.000569464
   1.78426 -0.000508107
   1.79621 -0.000457641
   1.80751 -0.000406563
   1.81818 -0.000355023
   1.82826 -0.000307175
   1.83779 -0.000264544
   1.84679 -0.000227472
   1.85529 -0.000196612
   1.86332 -0.000173355
   1.87091 -0.000153995
   1.87808 -0.000134316
   1.88485 -0.000112146
   1.89125 -8.83738e-05
   1.89729 -6.49026e-05
     1.903 -4.27177e-05
    1.9084 -2.24875e-05
    1.9135 -4.91768e-06
   1.91831 9.14166e-06
   1.92286 1.92006e-05
   1.92716 2.50035e-05
   1.93122 2.67522e-05
   1.93506 2.52822e-05
   1.93868 2.20545e-05
   1.94211 1.82885e-05
   1.94534 1.44203e-05
    1.9484 1.05075e-05
   1.95129 6.47986e-06
   1.95401 2.27055e-06
   1.95659 -2.18335e-06
   1.95903 -6.8696e-06
   1.96133 -1.16564e-05
    1.9635 -1.63631e-05
   1.96555 -2.08317e-05
   1.96749 -2.4902e-05
   1.96933 -2.84519e-05
   1.97106 -3.13963e-05
   1.97269 -3.36817e-05
   1.97424 -3.52692e-05
    1.9757 -3.61272e-05
   1.97708 -3.62456e-05
   1.97838 -3.56546e-05
   1.97961 -3.44232e-05
   1.98077 -3.26412e-05
   1.98187 -3.04064e-05
   1.98291 -2.78219e-05
   1.98389 -2.4992e-05
   1.98482 -2.20164e-05
   1.98569 -1.89881e-05
   1.98652 -1.59898e-05
    1.9873 -1.30929e-05
   1.98804 -1.03591e-05
   1.98874 -7.84002e-06
    1.9894 -5.57538e-06
   1.99002 -3.5911e-06
   1.99061 -1.89903e-06
   1.99116 -4.9771e-07
   1.99169 6.25724e-07
   1.99218 1.49276e-06
   1.99265 2.13084e-06
    1.9931 2.5778e-06
   1.99355 2.86288e-06
   1.99399 2.9994e-06
   1.99444 3.00012e-06
   1.99488 2.88219e-06
   1.99533 2.66656e-06
   1.99577 2.37701e-06
   1.99622 2.03862e-06
   1.99666 1.6764e-06
   1.99711 1.3138e-06
   1.99755 9.71338e-07
     1.998 6.65732e-07
   1.99844 4.09554e-07
   1.99889 2.11448e-07
   1.99933 7.6789e-08
   1.99978 8.60664e-09
         2          0
