         0          0
 0.0002225 7.15217e-06
 0.0006675 5.68864e-05
 0.0011125 0.000143477
 0.0015575 0.000256628
 0.0020025 0.00038807
 0.0024475 0.000531185
 0.0028925 0.000680768
 0.0033375 0.000832816
 0.0037825 0.00098436
 0.0042275 0.00113329
 0.0046725  0.0012782
 0.0051175 0.00141821
 0.0055625 0.00155285
 0.0060075 0.00168196
 0.0064525 0.00180553
 0.0068975 0.00192369
 0.0073476   0.002038
0.00781612 0.00215173
0.00831203 0.00226637
0.00883694 0.00238161
0.00939255 0.00249716
0.00998065 0.00261269
 0.0106031 0.00272781
  0.011262 0.00284213
 0.0119594 0.00295521
 0.0126977 0.00306658
  0.013479 0.00317574
 0.0143061 0.00328219
 0.0151815 0.00338543
 0.0161082 0.00348495
  0.017089 0.00358029
 0.0181271 0.00367102
  0.019226 0.00375677
 0.0203891 0.00383719
 0.0216203 0.00391204
 0.0229234 0.00398111
 0.0243028 0.00404428
 0.0257628 0.00410149
 0.0273082 0.00415277
  0.028944 0.00419821
 0.0306754 0.00423797
 0.0325081 0.00427228
 0.0344479 0.00430141
 0.0365012 0.00432564
 0.0386746 0.00434523
  0.040975 0.00436043
   0.04341 0.00437143
 0.0459873 0.00437837
 0.0487154 0.00438135
  0.051603  0.0043805
 0.0546595  0.0043759
 0.0578947 0.00436766
 0.0613191 0.00435587
 0.0649437 0.00434061
 0.0687803 0.00432194
 0.0728413  0.0042999
 0.0771397 0.00427459
 0.0816895 0.00424608
 0.0865054 0.00421458
 0.0916029  0.0041805
 0.0969985 0.00414435
   0.10271 0.00410644
  0.108755 0.00406662
  0.115153 0.00402462
  0.121926 0.00398042
  0.129095 0.00393427
  0.136683 0.00388639
  0.144715 0.00383682
  0.153216 0.00378591
  0.162214 0.00373406
  0.171739  0.0036812
  0.181821  0.0036279
  0.192492 0.00357397
  0.203788 0.00351912
  0.215744 0.00346436
  0.228399 0.00341077
  0.241794 0.00335736
  0.255972 0.00330185
   0.27098 0.00324376
  0.286865  0.0031824
  0.304824 0.00311511
  0.324407 0.00303389
  0.343989 0.00295499
  0.363571 0.00287758
  0.383154 0.00280244
  0.402736  0.0027266
  0.422319 0.00265078
  0.441901 0.00257137
  0.461484 0.00248645
  0.481066 0.00239911
  0.500648 0.00231239
  0.520231 0.00222582
  0.539813 0.00213879
  0.559396 0.00205419
  0.578978 0.00197267
   0.59856 0.00189103
  0.618143 0.00180803
  0.637725 0.00172728
  0.657308 0.00164935
   0.67689 0.00157336
  0.696473 0.00149981
  0.716055 0.00142924
  0.735637 0.00136337
   0.75522 0.00130042
  0.774802 0.00124013
  0.794385 0.00118225
  0.813967 0.00112673
  0.833549 0.00107405
  0.853132 0.00102604
  0.872714 0.00098434
  0.892297 0.000948511
  0.911879 0.000917772
  0.931462 0.000892369
  0.951044 0.000872943
  0.970626 0.000858931
  0.990209 0.000850616
   1.00979 0.000848302
   1.02937 0.000852291
   1.04896 0.000863508
   1.06854 0.000883047
   1.08812 0.000909463
    1.1077 0.000941165
   1.12729 0.00097858
   1.14687  0.0010209
   1.16645  0.0010676
   1.18603 0.00111801
   1.20562 0.00117194
    1.2252 0.00122906
   1.24478 0.00128983
   1.26436 0.00135469
   1.28395 0.00142225
   1.30353 0.00149249
   1.32311 0.00156387
   1.34269 0.00163752
   1.36228 0.00171655
   1.38186 0.00179683
   1.40144 0.00187976
   1.42102 0.00196827
   1.44061 0.00205683
   1.46019 0.00214373
   1.47977 0.00223087
   1.49935 0.00231815
   1.51894 0.00240418
   1.53852 0.00248922
    1.5581 0.00257544
   1.57768 0.00266432
   1.59727 0.00275253
   1.61685 0.00283866
   1.63643 0.00291936
   1.65601 0.00299759
    1.6756  0.0030785
   1.69518 0.00316286
   1.71314 0.00323453
   1.72902 0.00330252
   1.74403 0.00336554
   1.75821 0.00342499
    1.7716 0.00348289
   1.78426 0.00353883
   1.79621 0.00359194
   1.80751 0.00364293
   1.81818 0.00369353
   1.82826 0.00374432
   1.83779 0.00379551
   1.84679 0.00384659
   1.85529 0.00389705
   1.86332 0.00394632
   1.87091   0.003994
   1.87808 0.00403971
   1.88485   0.004083
   1.89125 0.00412351
   1.89729 0.00416143
     1.903 0.00419706
    1.9084 0.00423039
    1.9135  0.0042612
   1.91831 0.00428935
   1.92286 0.00431481
   1.92716 0.00433758
   1.93122 0.00435747
   1.93506 0.00437413
   1.93868 0.00438727
   1.94211 0.00439676
   1.94534 0.00440259
    1.9484 0.00440483
   1.95129  0.0044036
   1.95401  0.0043989
   1.95659 0.00439068
   1.95903 0.00437882
   1.96133 0.00436308
    1.9635 0.00434318
   1.96555 0.00431879
   1.96749 0.00428957
   1.96933 0.00425524
   1.97106 0.00421549
   1.97269 0.00417008
   1.97424  0.0041188
    1.9757 0.00406153
   1.97708 0.00399824
   1.97838 0.00392897
   1.97961 0.00385382
   1.98077   0.003773
   1.98187 0.00368678
   1.98291 0.00359549
   1.98389 0.00349955
   1.98482 0.00339939
   1.98569  0.0032955
   1.98652  0.0031884
    1.9873 0.00307859
   1.98804 0.00296661
   1.98874 0.00285293
    1.9894 0.00273805
   1.99002  0.0026224
   1.99061 0.00250638
   1.99116 0.00239035
   1.99169 0.00227465
   1.99218 0.00215958
   1.99265 0.00204543
    1.9931  0.0019307
   1.99355 0.00181212
   1.99399 0.00168811
   1.99444 0.00155855
   1.99488 0.00142343
   1.99533 0.00128292
   1.99577 0.00113749
   1.99622 0.000988027
   1.99666 0.000835933
   1.99711 0.000683327
   1.99755 0.000533192
     1.998 0.000389543
   1.99844 0.000257608
   1.99889 0.000144027
   1.99933 5.71059e-05
   1.99978 7.17995e-06
         2          0
