         0          0
 0.0002225 -1.36612e-08
 0.0006675 -5.57263e-07
 0.0011125 -2.69921e-06
 0.0015575 -7.61854e-06
 0.0020025 -1.64226e-05
 0.0024475 -3.01099e-05
 0.0028925 -4.95073e-05
 0.0033375 -7.51997e-05
 0.0037825 -0.000107484
 0.0042275 -0.000146359
 0.0046725 -0.00019154
 0.0051175 -0.0002425
 0.0055625 -0.000298523
 0.0060075 -0.000358766
 0.0064525 -0.000422317
 0.0068975 -0.000488255
 0.0073476 -0.000556488
0.00781612 -0.000628263
0.00831203 -0.00070413
0.00883694 -0.000783385
0.00939255 -0.000865201
0.00998065 -0.000948669
 0.0106031 -0.00103283
  0.011262 -0.00111674
 0.0119594 -0.00119948
 0.0126977 -0.0012802
  0.013479 -0.00135817
 0.0143061 -0.00143279
 0.0151815 -0.00150357
 0.0161082 -0.00157018
  0.017089 -0.0016324
 0.0181271 -0.00169014
  0.019226 -0.0017434
 0.0203891 -0.00179226
 0.0216203 -0.00183684
 0.0229234 -0.00187735
 0.0243028 -0.00191397
 0.0257628 -0.00194694
 0.0273082 -0.00197648
  0.028944 -0.00200281
 0.0306754 -0.00202614
 0.0325081 -0.00204667
 0.0344479 -0.0020646
 0.0365012 -0.00208007
 0.0386746 -0.00209326
  0.040975 -0.00210431
   0.04341 -0.00211338
 0.0459873 -0.00212062
 0.0487154 -0.00212613
  0.051603 -0.00213004
 0.0546595 -0.00213245
 0.0578947 -0.00213347
 0.0613191 -0.00213317
 0.0649437 -0.00213163
 0.0687803 -0.00212892
 0.0728413 -0.0021251
 0.0771397 -0.00212017
 0.0816895 -0.00211419
 0.0865054 -0.00210714
 0.0916029 -0.00209904
 0.0969985 -0.00208988
   0.10271 -0.00207975
  0.108755 -0.00206866
  0.115153 -0.00205647
  0.121926 -0.00204312
  0.129095 -0.00202873
  0.136683 -0.0020131
  0.144715 -0.00199616
  0.153216 -0.00197822
  0.162214 -0.00195893
  0.171739 -0.00193825
  0.181821 -0.00191568
  0.192492 -0.00189266
  0.203788 -0.0018655
  0.215744 -0.00184015
  0.228399 -0.00180876
  0.241794 -0.00178389
  0.255972 -0.00174089
   0.27098 -0.00172288
  0.286865 -0.0016685
  0.304824 -0.00163173
  0.324407 -0.00160231
  0.343989 -0.00153314
  0.363571 -0.00150413
  0.383154 -0.00144458
  0.402736 -0.00140877
  0.422319 -0.00135606
  0.441901 -0.00131335
  0.461484 -0.00126565
  0.481066 -0.00122049
  0.500648 -0.00117393
  0.520231 -0.00112789
  0.539813 -0.00108096
  0.559396 -0.00103536
  0.578978 -0.000987524
   0.59856 -0.000943126
  0.618143 -0.000894534
  0.637725 -0.00084961
  0.657308 -0.000802614
   0.67689 -0.000757342
  0.696473 -0.000709708
  0.716055 -0.000664288
  0.735637 -0.000616862
   0.75522 -0.000570962
  0.774802 -0.000523844
  0.794385 -0.000478363
  0.813967 -0.000432031
  0.833549 -0.000385546
  0.853132 -0.000339392
  0.872714 -0.00029289
  0.892297 -0.000246605
  0.911879 -0.000201087
  0.931462 -0.000154596
  0.951044 -0.000108615
  0.970626 -6.24836e-05
  0.990209 -1.69212e-05
   1.00979 2.98479e-05
   1.02937 7.54982e-05
   1.04896 0.000121713
   1.06854 0.000168086
   1.08812 0.000213704
    1.1077 0.000259536
   1.12729 0.000306326
   1.14687 0.000351874
   1.16645 0.000398825
   1.18603 0.000443932
   1.20562 0.00049175
    1.2252 0.000536667
   1.24478 0.000583907
   1.26436 0.000629722
   1.28395 0.000676274
   1.30353 0.000720992
   1.32311 0.00076894
   1.34269 0.000813274
   1.36228 0.000861714
   1.38186 0.000905368
   1.40144 0.000954174
   1.42102 0.000997796
   1.44061 0.00104682
   1.46019 0.00108953
   1.47977 0.00113795
   1.49935 0.00118251
   1.51894   0.001229
   1.53852 0.00127529
    1.5581 0.00132244
   1.57768  0.0013644
   1.59727 0.00141686
   1.61685 0.00145281
   1.63643 0.00151113
   1.65601 0.00154034
    1.6756 0.00160992
   1.69518 0.00163564
   1.71314 0.00167565
   1.72902 0.00172834
   1.74403 0.00174631
   1.75821 0.00178821
    1.7716 0.00181345
   1.78426 0.00184452
   1.79621  0.0018699
   1.80751 0.00189576
   1.81818 0.00191887
   1.82826 0.00194114
   1.83779  0.0019615
   1.84679 0.00198051
   1.85529 0.00199832
   1.86332 0.00201493
   1.87091 0.00203023
   1.87808 0.00204435
   1.88485 0.00205729
   1.89125 0.00206936
   1.89729 0.00208038
     1.903 0.00209034
    1.9084 0.00209929
    1.9135 0.00210723
   1.91831 0.00211406
   1.92286  0.0021198
   1.92716 0.00212457
   1.93122 0.00212831
   1.93506 0.00213094
   1.93868 0.00213239
   1.94211 0.00213262
   1.94534 0.00213155
    1.9484  0.0021291
   1.95129 0.00212517
   1.95401 0.00211967
   1.95659 0.00211248
   1.95903 0.00210345
   1.96133 0.00209243
    1.9635 0.00207928
   1.96555 0.00206386
   1.96749   0.002046
   1.96933 0.00202552
   1.97106 0.00200224
   1.97269 0.00197596
   1.97424 0.00194647
    1.9757 0.00191355
   1.97708 0.00187698
   1.97838 0.00183653
   1.97961 0.00179201
   1.98077 0.00174323
   1.98187 0.00169006
   1.98291 0.00163241
   1.98389 0.00157029
   1.98482 0.00150379
   1.98569 0.00143312
   1.98652 0.00135862
    1.9873 0.00128075
   1.98804 0.00120013
   1.98874 0.00111748
    1.9894 0.00103364
   1.99002 0.000949533
   1.99061 0.000866103
   1.99116 0.000784305
   1.99169 0.000705049
   1.99218 0.000629165
   1.99265 0.000557357
    1.9931 0.000489077
   1.99355 0.000423079
   1.99399 0.000359456
   1.99444 0.000299133
   1.99488 0.000243023
   1.99533 0.000191975
   1.99577 0.000146707
   1.99622 0.000107751
   1.99666 7.53933e-05
   1.99711 4.96391e-05
   1.99755 3.01925e-05
     1.998 1.64689e-05
   1.99844 7.64057e-06
   1.99889 2.70721e-06
   1.99933 5.58967e-07
   1.99978 1.37087e-08
         2          0
