         0          0
 0.0002225 2.24259e-10
 0.0006675 2.10307e-08
 0.0011125 1.45788e-07
 0.0015575 5.11621e-07
 0.0020025 1.27374e-06
 0.0024475 2.58812e-06
 0.0028925 4.60252e-06
 0.0033375 7.44888e-06
 0.0037825 1.12385e-05
 0.0042275 1.60603e-05
 0.0046725 2.19812e-05
 0.0051175 2.90474e-05
 0.0055625 3.72861e-05
 0.0060075 4.67083e-05
 0.0064525 5.73101e-05
 0.0068975 6.90778e-05
 0.0073476 8.21466e-05
0.00781612 9.69657e-05
0.00831203 0.000113957
0.00883694 0.000133345
0.00939255 0.000155357
0.00998065 0.000180224
 0.0106031 0.000208173
  0.011262 0.000239427
 0.0119594 0.000274196
 0.0126977 0.000312673
  0.013479 0.000355027
 0.0143061 0.000401395
 0.0151815 0.000451878
 0.0161082 0.000506531
  0.017089 0.000565362
 0.0181271 0.000628324
  0.019226 0.000695311
 0.0203891 0.000766159
 0.0216203 0.000840642
 0.0229234 0.000918472
 0.0243028 0.000999304
 0.0257628 0.00108273
 0.0273082  0.0011683
  0.028944 0.00125551
 0.0306754 0.00134381
 0.0325081 0.00143261
 0.0344479 0.00152131
 0.0365012 0.00160926
 0.0386746 0.00169584
  0.040975  0.0017804
   0.04341 0.00186234
 0.0459873 0.00194108
 0.0487154 0.00201615
  0.051603 0.00208711
 0.0546595  0.0021536
 0.0578947 0.00221537
 0.0613191 0.00227224
 0.0649437 0.00232411
 0.0687803 0.00237097
 0.0728413 0.00241289
 0.0771397    0.00245
 0.0816895 0.00248244
 0.0865054 0.00251039
 0.0916029 0.00253402
 0.0969985 0.00255357
   0.10271 0.00256928
  0.108755 0.00258143
  0.115153 0.00259025
  0.121926 0.00259593
  0.129095 0.00259861
  0.136683  0.0025984
  0.144715 0.00259537
  0.153216 0.00258968
  0.162214 0.00258145
  0.171739 0.00257069
  0.181821 0.00255726
  0.192492 0.00254093
  0.203788 0.00252113
  0.215744 0.00249747
  0.228399 0.00247071
  0.241794  0.0024408
  0.255972  0.0024078
   0.27098 0.00237147
  0.286865 0.00233431
  0.304824  0.0022924
  0.324407 0.00224438
  0.343989 0.00219536
  0.363571 0.00214744
  0.383154 0.00209892
  0.402736 0.00205087
  0.422319 0.00200271
  0.441901 0.00195428
  0.461484 0.00190512
  0.481066 0.00185595
  0.500648 0.00180595
  0.520231 0.00175593
  0.539813 0.00170487
  0.559396  0.0016539
  0.578978 0.00160254
   0.59856 0.00155159
  0.618143 0.00150079
  0.637725 0.00145081
  0.657308 0.00140228
   0.67689 0.00135553
  0.696473 0.00130982
  0.716055 0.00126543
  0.735637  0.0012224
   0.75522 0.00118089
  0.774802 0.00114138
  0.794385 0.00110465
  0.813967 0.00107101
  0.833549 0.00104033
  0.853132 0.00101248
  0.872714 0.000987701
  0.892297 0.000966142
  0.911879 0.000948415
  0.931462 0.00093441
  0.951044 0.00092432
  0.970626 0.000918097
  0.990209  0.0009159
   1.00979 0.000917345
   1.02937 0.000922455
   1.04896 0.000931209
   1.06854 0.000943539
   1.08812 0.000959384
    1.1077 0.000978899
   1.12729 0.00100154
   1.14687 0.00102704
   1.16645 0.00105502
   1.18603 0.00108537
   1.20562 0.00111778
    1.2252 0.00115234
   1.24478 0.00118893
   1.26436 0.00122744
   1.28395 0.00126806
   1.30353 0.00131113
   1.32311 0.00135602
   1.34269 0.00140245
   1.36228 0.00145011
   1.38186 0.00149873
   1.40144 0.00154819
   1.42102 0.00159813
   1.44061 0.00164898
   1.46019 0.00170039
   1.47977 0.00175283
   1.49935 0.00180423
   1.51894 0.00185579
   1.53852 0.00190535
    1.5581 0.00195455
   1.57768 0.00200316
   1.59727 0.00205109
   1.61685 0.00209894
   1.63643 0.00214744
   1.65601   0.002196
    1.6756 0.00224497
   1.69518 0.00229453
   1.71314 0.00233739
   1.72902 0.00237501
   1.74403 0.00241196
   1.75821 0.00244619
    1.7716 0.00247717
   1.78426 0.00250486
   1.79621 0.00252956
   1.80751 0.00255076
   1.81818  0.0025689
   1.82826 0.00258377
   1.83779 0.00259562
   1.84679 0.00260444
   1.85529 0.00261033
   1.86332 0.00261328
   1.87091 0.00261339
   1.87808  0.0026107
   1.88485 0.00260518
   1.89125 0.00259657
   1.89729 0.00258458
     1.903  0.0025689
    1.9084 0.00254927
    1.9135 0.00252547
   1.91831 0.00249731
   1.92286 0.00246463
   1.92716 0.00242724
   1.93122 0.00238497
   1.93506 0.00233771
   1.93868 0.00228543
   1.94211 0.00222814
   1.94534 0.00216595
    1.9484 0.00209903
   1.95129 0.00202765
   1.95401 0.00195213
   1.95659  0.0018729
   1.95903 0.00179046
   1.96133 0.00170537
    1.9635 0.00161825
   1.96555 0.00152974
   1.96749 0.00144048
   1.96933 0.00135111
   1.97106 0.00126226
   1.97269 0.00117452
   1.97424 0.00108843
    1.9757 0.00100451
   1.97708 0.000923205
   1.97838 0.000844927
   1.97961 0.000770023
   1.98077 0.000698782
   1.98187 0.000631429
   1.98291 0.00056813
   1.98389 0.000508991
   1.98482 0.000454056
   1.98569 0.000403319
   1.98652 0.000356721
    1.9873 0.000314161
   1.98804 0.000275498
   1.98874 0.000240562
    1.9894 0.00020916
   1.99002 0.000181079
   1.99061 0.000156095
   1.99116 0.000133979
   1.99169 0.000114499
   1.99218 9.74275e-05
   1.99265 8.25383e-05
    1.9931 6.94074e-05
   1.99355 5.75835e-05
   1.99399 4.69311e-05
   1.99444 3.7464e-05
   1.99488 2.91858e-05
   1.99533 2.20858e-05
   1.99577 1.61366e-05
   1.99622 1.12918e-05
   1.99666 7.48413e-06
   1.99711 4.62423e-06
   1.99755 2.60028e-06
     1.998 1.27969e-06
   1.99844 5.13997e-07
   1.99889 1.46459e-07
   1.99933 2.11255e-08
   1.99978 2.25115e-10
         2          0
