         0          0
 0.0002225 1.18341e-06
 0.0006675 3.54943e-06
 0.0011125 5.91128e-06
 0.0015575 8.26341e-06
 0.0020025 1.05995e-05
 0.0024475 1.29136e-05
 0.0028925 1.52013e-05
 0.0033375 1.74609e-05
 0.0037825 1.96933e-05
 0.0042275 2.19023e-05
 0.0046725 2.40941e-05
 0.0051175 2.62763e-05
 0.0055625 2.84577e-05
 0.0060075 3.06471e-05
 0.0064525 3.28525e-05
 0.0068975 3.50806e-05
 0.0073476 3.7362e-05
0.00781612 3.97694e-05
0.00831203 4.2356e-05
0.00883694 4.51375e-05
0.00939255 4.81299e-05
0.00998065 5.13499e-05
 0.0106031 5.48159e-05
  0.011262 5.85488e-05
 0.0119594 6.25737e-05
 0.0126977 6.69204e-05
  0.013479 7.16239e-05
 0.0143061 7.67246e-05
 0.0151815 8.22664e-05
 0.0161082 8.82963e-05
  0.017089 9.48629e-05
 0.0181271 0.000102013
  0.019226 0.00010979
 0.0203891 0.000118239
 0.0216203 0.00012741
 0.0229234 0.000137341
 0.0243028 0.000148059
 0.0257628 0.000159582
 0.0273082 0.000171909
  0.028944 0.00018502
 0.0306754 0.000198905
 0.0325081 0.000213623
 0.0344479 0.000229269
 0.0365012 0.000245872
 0.0386746 0.000263383
  0.040975 0.000281754
   0.04341 0.000300897
 0.0459873 0.000320757
 0.0487154 0.000341493
  0.051603 0.000363243
 0.0546595 0.000385872
 0.0578947 0.00040891
 0.0613191 0.000431579
 0.0649437 0.000453116
 0.0687803 0.000472929
 0.0728413 0.000490278
 0.0771397 0.000504067
 0.0816895 0.000513216
 0.0865054 0.000517829
 0.0916029 0.000519466
 0.0969985 0.000519833
   0.10271 0.000519672
  0.108755 0.000519161
  0.115153 0.000519149
  0.121926 0.000521682
  0.129095 0.000530011
  0.136683 0.000548666
  0.144715 0.000582321
  0.153216 0.000628517
  0.162214 0.000678826
  0.171739 0.000728112
  0.181821 0.00077888
  0.192492 0.000833159
  0.203788 0.000889333
  0.215744 0.000941316
  0.228399 0.000984004
  0.241794 0.00103073
  0.255972 0.00107631
   0.27098 0.00109828
  0.286865 0.00108787
  0.304824 0.00106372
  0.324407 0.00106695
  0.343989 0.00108403
  0.363571 0.00109185
  0.383154 0.00110201
  0.402736  0.0011118
  0.422319 0.00111424
  0.441901 0.00111582
  0.461484 0.00112346
  0.481066 0.00111863
  0.500648 0.00109046
  0.520231 0.00104153
  0.539813 0.000987585
  0.559396 0.000940458
  0.578978 0.000875079
   0.59856 0.000772614
  0.618143 0.000647142
  0.637725 0.000522652
  0.657308 0.000417903
   0.67689 0.000320798
  0.696473 0.00022734
  0.716055 0.000137085
  0.735637 5.44082e-05
   0.75522 -2.11787e-05
  0.774802 -0.000109296
  0.794385 -0.00019974
  0.813967 -0.000276607
  0.833549 -0.000323092
  0.853132 -0.000347275
  0.872714 -0.000385333
  0.892297 -0.000424048
  0.911879 -0.000453237
  0.931462 -0.000474873
  0.951044 -0.000512939
  0.970626 -0.000572307
  0.990209 -0.000625073
   1.00979 -0.000665747
   1.02937 -0.000703308
   1.04896 -0.000725438
   1.06854 -0.000734724
   1.08812 -0.000745155
    1.1077 -0.00077693
   1.12729 -0.000817917
   1.14687 -0.000852569
   1.16645 -0.000873133
   1.18603 -0.000879159
   1.20562 -0.000877883
    1.2252 -0.000876172
   1.24478 -0.0008742
   1.26436 -0.000863602
   1.28395 -0.000856022
   1.30353 -0.000860369
   1.32311 -0.000855638
   1.34269 -0.000855921
   1.36228 -0.000861694
   1.38186 -0.000855533
   1.40144 -0.000858873
   1.42102 -0.000849419
   1.44061 -0.000823985
   1.46019 -0.000809355
   1.47977 -0.000816649
   1.49935 -0.000863721
   1.51894 -0.000930639
   1.53852 -0.00100295
    1.5581 -0.00108096
   1.57768 -0.00115897
   1.59727 -0.00121701
   1.61685 -0.00125745
   1.63643 -0.00126306
   1.65601 -0.00124521
    1.6756 -0.00122624
   1.69518 -0.00116615
   1.71314 -0.00106389
   1.72902 -0.000937092
   1.74403 -0.000804775
   1.75821 -0.000700404
    1.7716 -0.000622513
   1.78426 -0.000564752
   1.79621 -0.000516813
   1.80751 -0.000466501
   1.81818 -0.000414242
   1.82826 -0.000365156
   1.83779 -0.000321166
   1.84679 -0.000281852
   1.85529 -0.000248391
   1.86332 -0.000223536
   1.87091 -0.000203396
   1.87808 -0.000182773
   1.88485 -0.0001584
   1.89125 -0.000131041
   1.89729 -0.000103243
     1.903 -7.62289e-05
    1.9084 -5.08972e-05
    1.9135 -2.80647e-05
   1.91831 -8.86124e-06
   1.92286  5.775e-06
   1.92716 1.52426e-05
   1.93122 1.96155e-05
   1.93506 1.98802e-05
   1.93868 1.77051e-05
   1.94211 1.44899e-05
   1.94534 1.0713e-05
    1.9484 6.44121e-06
   1.95129 1.65574e-06
   1.95401 -3.67314e-06
   1.95659 -9.61857e-06
   1.95903 -1.62314e-05
   1.96133 -2.34082e-05
    1.9635 -3.08768e-05
   1.96555 -3.83172e-05
   1.96749 -4.5403e-05
   1.96933 -5.18963e-05
   1.97106 -5.76316e-05
   1.97269 -6.24953e-05
   1.97424 -6.64041e-05
    1.9757 -6.92827e-05
   1.97708 -7.10802e-05
   1.97838 -7.17923e-05
   1.97961 -7.14701e-05
   1.98077 -7.02047e-05
   1.98187 -6.81115e-05
   1.98291 -6.53238e-05
   1.98389 -6.19825e-05
   1.98482 -5.8224e-05
   1.98569 -5.4178e-05
   1.98652 -4.99628e-05
    1.9873 -4.56837e-05
   1.98804 -4.14354e-05
   1.98874 -3.73018e-05
    1.9894 -3.33537e-05
   1.99002 -2.96461e-05
   1.99061 -2.62177e-05
   1.99116 -2.3091e-05
   1.99169 -2.02742e-05
   1.99218 -1.77641e-05
   1.99265 -1.55481e-05
    1.9931 -1.35747e-05
   1.99355 -1.17837e-05
   1.99399 -1.01591e-05
   1.99444 -8.70257e-06
   1.99488 -7.41203e-06
   1.99533 -6.2806e-06
   1.99577 -5.29718e-06
   1.99622 -4.44705e-06
   1.99666 -3.71247e-06
   1.99711 -3.07368e-06
   1.99755 -2.51022e-06
     1.998 -2.0023e-06
   1.99844 -1.53205e-06
   1.99889 -1.0845e-06
   1.99933 -6.48287e-07
   1.99978 -2.15951e-07
         2          0
