         0          0
 0.0002225 -1.16113e-09
 0.0006675 -1.33769e-08
 0.0011125 -4.41969e-08
 0.0015575 -1.01926e-07
 0.0020025 -1.9745e-07
 0.0024475 -3.43808e-07
 0.0028925 -5.54827e-07
 0.0033375 -8.4321e-07
 0.0037825 -1.21869e-06
 0.0042275 -1.68672e-06
 0.0046725 -2.2478e-06
 0.0051175 -2.89753e-06
 0.0055625 -3.62729e-06
 0.0060075 -4.42533e-06
 0.0064525 -5.27815e-06
 0.0068975 -6.17166e-06
 0.0073476 -7.10292e-06
0.00781612 -8.08796e-06
0.00831203 -9.13377e-06
0.00883694 -1.023e-05
0.00939255 -1.13646e-05
0.00998065 -1.25239e-05
 0.0106031 -1.36932e-05
  0.011262 -1.48568e-05
 0.0119594 -1.59986e-05
 0.0126977 -1.71023e-05
  0.013479 -1.8152e-05
 0.0143061 -1.91338e-05
 0.0151815 -2.00379e-05
 0.0161082 -2.08605e-05
  0.017089 -2.16048e-05
 0.0181271 -2.22801e-05
  0.019226 -2.29009e-05
 0.0203891 -2.34859e-05
 0.0216203 -2.40556e-05
 0.0229234 -2.46284e-05
 0.0243028 -2.52144e-05
 0.0257628 -2.58081e-05
 0.0273082 -2.63938e-05
  0.028944 -2.69611e-05
 0.0306754 -2.75086e-05
 0.0325081 -2.80316e-05
 0.0344479 -2.85107e-05
 0.0365012 -2.8908e-05
 0.0386746 -2.9198e-05
  0.040975 -2.93873e-05
   0.04341 -2.94726e-05
 0.0459873 -2.94332e-05
 0.0487154 -2.92713e-05
  0.051603 -2.8982e-05
 0.0546595 -2.85438e-05
 0.0578947 -2.79717e-05
 0.0613191 -2.73053e-05
 0.0649437 -2.66137e-05
 0.0687803 -2.59603e-05
 0.0728413 -2.53126e-05
 0.0771397 -2.45204e-05
 0.0816895 -2.34193e-05
 0.0865054 -2.20487e-05
 0.0916029 -2.0688e-05
 0.0969985 -1.95242e-05
   0.10271 -1.86787e-05
  0.108755 -1.82022e-05
  0.115153 -1.81189e-05
  0.121926 -1.82313e-05
  0.129095 -1.7925e-05
  0.136683 -1.70108e-05
  0.144715 -1.62597e-05
  0.153216 -1.60739e-05
  0.162214 -1.59065e-05
  0.171739 -1.54773e-05
  0.181821 -1.51392e-05
  0.192492 -1.44858e-05
  0.203788 -1.31466e-05
  0.215744 -1.17856e-05
  0.228399 -1.04919e-05
  0.241794 -1.05903e-05
  0.255972 -1.25226e-05
   0.27098 -1.49618e-05
  0.286865 -1.6671e-05
  0.304824 -1.82641e-05
  0.324407 -1.88783e-05
  0.343989 -1.58942e-05
  0.363571 -1.08742e-05
  0.383154 -7.36255e-06
  0.402736 -4.87282e-06
  0.422319 -2.16997e-06
  0.441901 -1.29516e-06
  0.461484 -2.48006e-06
  0.481066 -4.5433e-06
  0.500648 -4.84042e-06
  0.520231 -3.83173e-06
  0.539813 -9.79318e-07
  0.559396 2.94772e-06
  0.578978 7.2591e-06
   0.59856 1.13061e-05
  0.618143 1.37877e-05
  0.637725 1.31881e-05
  0.657308 1.00064e-05
   0.67689 5.87433e-06
  0.696473 2.15318e-06
  0.716055 -1.11021e-08
  0.735637 -1.68672e-07
   0.75522 -1.38711e-07
  0.774802 -7.24845e-07
  0.794385 -1.64596e-06
  0.813967 -1.41017e-06
  0.833549 -1.47018e-06
  0.853132 -2.73529e-06
  0.872714 -5.3417e-06
  0.892297 -7.78749e-06
  0.911879 -9.95701e-06
  0.931462 -1.14845e-05
  0.951044 -1.27961e-05
  0.970626 -1.45494e-05
  0.990209 -1.66244e-05
   1.00979 -1.82232e-05
   1.02937 -1.88064e-05
   1.04896 -1.87139e-05
   1.06854 -1.80176e-05
   1.08812 -1.76039e-05
    1.1077 -1.78051e-05
   1.12729 -1.78308e-05
   1.14687 -1.68439e-05
   1.16645 -1.49595e-05
   1.18603 -1.29549e-05
   1.20562 -1.20224e-05
    1.2252 -1.17702e-05
   1.24478 -1.20776e-05
   1.26436 -1.29847e-05
   1.28395 -1.40693e-05
   1.30353 -1.59143e-05
   1.32311 -1.85275e-05
   1.34269 -2.01109e-05
   1.36228 -2.11106e-05
   1.38186 -2.3539e-05
   1.40144 -2.50441e-05
   1.42102 -2.50038e-05
   1.44061 -2.27347e-05
   1.46019 -1.78559e-05
   1.47977 -1.38404e-05
   1.49935 -1.08111e-05
   1.51894 -8.52722e-06
   1.53852 -8.1297e-06
    1.5581 -7.58319e-06
   1.57768 -6.75627e-06
   1.59727 -5.4588e-06
   1.61685 -2.01606e-06
   1.63643 1.60317e-06
   1.65601 4.41966e-06
    1.6756 3.29382e-06
   1.69518 4.27485e-07
   1.71314 -1.97032e-06
   1.72902 -2.71802e-06
   1.74403 -1.67458e-06
   1.75821 1.08853e-06
    1.7716 5.50824e-06
   1.78426 9.73536e-06
   1.79621 1.28443e-05
   1.80751 1.50962e-05
   1.81818 1.6755e-05
   1.82826 1.82402e-05
   1.83779 1.96093e-05
   1.84679 2.00523e-05
   1.85529 1.9855e-05
   1.86332 1.98695e-05
   1.87091 2.03948e-05
   1.87808 2.12095e-05
   1.88485  2.173e-05
   1.89125 2.17219e-05
   1.89729 2.14237e-05
     1.903 2.08596e-05
    1.9084 2.00721e-05
    1.9135 1.89719e-05
   1.91831 1.75446e-05
   1.92286 1.59628e-05
   1.92716 1.43579e-05
   1.93122 1.27805e-05
   1.93506 1.12049e-05
   1.93868 9.73369e-06
   1.94211 8.48069e-06
   1.94534 7.50421e-06
    1.9484 6.79854e-06
   1.95129 6.29494e-06
   1.95401 5.93693e-06
   1.95659 5.70056e-06
   1.95903 5.61659e-06
   1.96133 5.7229e-06
    1.9635 5.9904e-06
   1.96555 6.34217e-06
   1.96749 6.70779e-06
   1.96933 7.04879e-06
   1.97106 7.34776e-06
   1.97269 7.59798e-06
   1.97424 7.80535e-06
    1.9757 7.98028e-06
   1.97708 8.13205e-06
   1.97838 8.26267e-06
   1.97961 8.37039e-06
   1.98077 8.45589e-06
   1.98187 8.52409e-06
   1.98291 8.58168e-06
   1.98389 8.63319e-06
   1.98482 8.67991e-06
   1.98569 8.72012e-06
   1.98652 8.74993e-06
    1.9873 8.76378e-06
   1.98804 8.75419e-06
   1.98874 8.71231e-06
    1.9894 8.62905e-06
   1.99002 8.49681e-06
   1.99061 8.3106e-06
   1.99116 8.06878e-06
   1.99169 7.77328e-06
   1.99218 7.42913e-06
   1.99265 7.04387e-06
    1.9931 6.6199e-06
   1.99355 6.15135e-06
   1.99399 5.63816e-06
   1.99444 5.08771e-06
   1.99488 4.50984e-06
   1.99533 3.91663e-06
   1.99577 3.32188e-06
   1.99622 2.74033e-06
   1.99666 2.18676e-06
   1.99711 1.67514e-06
   1.99755 1.21771e-06
     1.998 8.24461e-07
   1.99844 5.02883e-07
   1.99889 2.58114e-07
   1.99933 9.33492e-08
   1.99978 1.04224e-08
         2          0
