         0          0
 0.0002225 2.24186e-10
 0.0006675 2.10218e-08
 0.0011125 1.45723e-07
 0.0015575 5.11384e-07
 0.0020025 1.27313e-06
 0.0024475 2.58685e-06
 0.0028925 4.60023e-06
 0.0033375 7.44509e-06
 0.0037825 1.12326e-05
 0.0042275 1.60518e-05
 0.0046725 2.19694e-05
 0.0051175 2.90316e-05
 0.0055625 3.72656e-05
 0.0060075 4.66823e-05
 0.0064525 5.72779e-05
 0.0068975 6.90386e-05
 0.0073476 8.20996e-05
0.00781612 9.69098e-05
0.00831203 0.000113891
0.00883694 0.000133267
0.00939255 0.000155266
0.00998065 0.000180117
 0.0106031 0.000208049
  0.011262 0.000239283
 0.0119594 0.000274031
 0.0126977 0.000312485
  0.013479 0.000354812
 0.0143061 0.000401152
 0.0151815 0.000451604
 0.0161082 0.000506225
  0.017089 0.00056502
 0.0181271 0.000627943
  0.019226 0.00069489
 0.0203891 0.000765695
 0.0216203 0.000840133
 0.0229234 0.000917916
 0.0243028 0.000998697
 0.0257628 0.00108207
 0.0273082 0.00116759
  0.028944 0.00125474
 0.0306754 0.00134298
 0.0325081 0.00143172
 0.0344479 0.00152036
 0.0365012 0.00160825
 0.0386746 0.00169476
  0.040975 0.00177925
   0.04341 0.00186112
 0.0459873 0.00193979
 0.0487154 0.00201477
  0.051603 0.00208564
 0.0546595 0.00215204
 0.0578947 0.00221371
 0.0613191 0.00227046
 0.0649437 0.00232221
 0.0687803 0.00236894
 0.0728413 0.00241071
 0.0771397 0.00244766
 0.0816895 0.00247993
 0.0865054 0.00250768
 0.0916029 0.00253111
 0.0969985 0.00255043
   0.10271  0.0025659
  0.108755 0.00257778
  0.115153 0.00258631
  0.121926 0.00259168
  0.129095 0.00259402
  0.136683 0.00259346
  0.144715 0.00259006
  0.153216 0.00258397
  0.162214 0.00257532
  0.171739 0.00256412
  0.181821 0.00255024
  0.192492 0.00253342
  0.203788 0.00251315
  0.215744 0.00248902
  0.228399 0.00246183
  0.241794 0.00243152
  0.255972 0.00239816
   0.27098 0.00236154
  0.286865 0.00232417
  0.304824 0.00228212
  0.324407  0.0022341
  0.343989 0.00218512
  0.363571 0.00213735
  0.383154 0.00208903
  0.402736 0.00204128
  0.422319 0.00199348
  0.441901 0.00194546
  0.461484 0.00189671
  0.481066 0.00184794
  0.500648 0.00179833
  0.520231 0.00174869
  0.539813 0.00169801
  0.559396 0.00164741
  0.578978 0.00159641
   0.59856 0.00154581
  0.618143 0.00149538
  0.637725 0.00144578
  0.657308 0.00139761
   0.67689 0.00135123
  0.696473 0.00130588
  0.716055 0.00126182
  0.735637 0.00121911
   0.75522 0.00117792
  0.774802  0.0011387
  0.794385 0.00110222
  0.813967 0.00106881
  0.833549 0.00103832
  0.853132 0.00101061
  0.872714 0.000985949
  0.892297 0.000964468
  0.911879 0.000946789
  0.931462 0.000932812
  0.951044 0.000922737
  0.970626 0.000916521
  0.990209 0.000914326
   1.00979 0.000915763
   1.02937 0.000920855
   1.04896 0.000929572
   1.06854 0.000941853
   1.08812 0.000957628
    1.1077 0.00097706
   1.12729 0.000999611
   1.14687 0.00102501
   1.16645 0.00105288
   1.18603 0.00108313
   1.20562 0.00111543
    1.2252 0.00114989
   1.24478 0.00118638
   1.26436 0.00122478
   1.28395 0.00126531
   1.30353 0.00130824
   1.32311   0.001353
   1.34269 0.00139925
   1.36228 0.00144672
   1.38186 0.00149512
   1.40144 0.00154435
   1.42102 0.00159406
   1.44061 0.00164469
   1.46019 0.00169586
   1.47977 0.00174804
   1.49935 0.00179914
   1.51894 0.00185038
   1.53852 0.00189963
    1.5581 0.00194853
   1.57768  0.0019969
   1.59727 0.00204464
   1.61685 0.00209235
   1.63643 0.00214074
   1.65601 0.00218917
    1.6756 0.00223808
   1.69518 0.00228757
   1.71314 0.00233046
   1.72902 0.00236813
   1.74403  0.0024052
   1.75821 0.00243959
    1.7716 0.00247078
   1.78426  0.0024987
   1.79621 0.00252366
   1.80751 0.00254515
   1.81818  0.0025636
   1.82826 0.00257878
   1.83779 0.00259093
   1.84679 0.00260005
   1.85529 0.00260623
   1.86332 0.00260945
   1.87091 0.00260981
   1.87808 0.00260736
   1.88485 0.00260205
   1.89125 0.00259365
   1.89729 0.00258184
     1.903 0.00256634
    1.9084 0.00254687
    1.9135 0.00252321
   1.91831 0.00249519
   1.92286 0.00246264
   1.92716 0.00242537
   1.93122 0.00238321
   1.93506 0.00233606
   1.93868 0.00228387
   1.94211 0.00222668
   1.94534 0.00216457
    1.9484 0.00209774
   1.95129 0.00202643
   1.95401 0.00195098
   1.95659 0.00187182
   1.95903 0.00178944
   1.96133 0.00170441
    1.9635 0.00161735
   1.96555 0.00152889
   1.96749 0.00143968
   1.96933 0.00135037
   1.97106 0.00126157
   1.97269 0.00117387
   1.97424 0.00108783
    1.9757 0.00100395
   1.97708 0.000922685
   1.97838 0.000844448
   1.97961 0.000769584
   1.98077 0.000698381
   1.98187 0.000631065
   1.98291 0.000567801
   1.98389 0.000508695
   1.98482 0.000453792
   1.98569 0.000403084
   1.98652 0.000356513
    1.9873 0.000313977
   1.98804 0.000275337
   1.98874 0.000240422
    1.9894 0.000209039
   1.99002 0.000180974
   1.99061 0.000156005
   1.99116 0.000133902
   1.99169 0.000114434
   1.99218 9.73724e-05
   1.99265 8.24919e-05
    1.9931 6.93687e-05
   1.99355 5.75518e-05
   1.99399 4.69055e-05
   1.99444 3.74437e-05
   1.99488 2.91702e-05
   1.99533 2.20742e-05
   1.99577 1.61283e-05
   1.99622 1.1286e-05
   1.99666 7.48038e-06
   1.99711 4.62196e-06
   1.99755 2.59903e-06
     1.998 1.27909e-06
   1.99844 5.13763e-07
   1.99889 1.46394e-07
   1.99933 2.11167e-08
   1.99978 2.25042e-10
         2          0
