         0          0
 0.0002225 7.14489e-06
 0.0006675 5.68246e-05
 0.0011125 0.000143312
 0.0015575 0.00025632
 0.0020025 0.000387582
 0.0024475 0.000530487
 0.0028925 0.000679833
 0.0033375 0.000831624
 0.0037825 0.000982892
 0.0042275 0.00113153
 0.0046725 0.00127614
 0.0051175 0.00141584
 0.0055625 0.00155018
 0.0060075 0.00167897
 0.0064525 0.00180223
 0.0068975 0.00192008
 0.0073476 0.00203408
0.00781612  0.0021475
0.00831203  0.0022618
0.00883694  0.0023767
0.00939255  0.0024919
0.00998065 0.00260706
 0.0106031 0.00272182
  0.011262 0.00283577
 0.0119594 0.00294847
 0.0126977 0.00305946
  0.013479 0.00316825
 0.0143061 0.00327432
 0.0151815 0.00337718
 0.0161082 0.00347633
  0.017089  0.0035713
 0.0181271 0.00366167
  0.019226 0.00374706
 0.0203891 0.00382714
 0.0216203 0.00390165
 0.0229234 0.00397039
 0.0243028 0.00403324
 0.0257628 0.00409013
 0.0273082 0.00414111
  0.028944 0.00418625
 0.0306754 0.00422572
 0.0325081 0.00425975
 0.0344479  0.0042886
 0.0365012 0.00431255
 0.0386746 0.00433189
  0.040975 0.00434684
   0.04341  0.0043576
 0.0459873 0.00436432
 0.0487154  0.0043671
  0.051603 0.00436607
 0.0546595 0.00436133
 0.0578947 0.00435298
 0.0613191 0.00434111
 0.0649437 0.00432584
 0.0687803  0.0043072
 0.0728413 0.00428526
 0.0771397 0.00426009
 0.0816895 0.00423179
 0.0865054 0.00420055
 0.0916029 0.00416678
 0.0969985 0.00413098
   0.10271 0.00409346
  0.108755 0.00405407
  0.115153 0.00401254
  0.121926 0.00396886
  0.129095 0.00392324
  0.136683 0.00387589
  0.144715 0.00382683
  0.153216 0.00377642
  0.162214 0.00372507
  0.171739 0.00367271
  0.181821 0.00361994
  0.192492 0.00356655
  0.203788 0.00351225
  0.215744 0.00345804
  0.228399 0.00340497
  0.241794 0.00335194
  0.255972 0.00329679
   0.27098 0.00323914
  0.286865 0.00317823
  0.304824 0.00311134
  0.324407 0.00303039
  0.343989 0.00295164
  0.363571  0.0028743
  0.383154 0.00279916
  0.402736 0.00272332
  0.422319 0.00264739
  0.441901 0.00256781
  0.461484  0.0024827
  0.481066 0.00239531
  0.500648  0.0023087
  0.520231 0.00222226
  0.539813 0.00213537
  0.559396 0.00205086
  0.578978 0.00196941
   0.59856 0.00188788
  0.618143 0.00180504
  0.637725 0.00172445
  0.657308 0.00164663
   0.67689 0.00157071
  0.696473  0.0014972
  0.716055 0.00142666
  0.735637 0.00136078
   0.75522 0.00129779
  0.774802  0.0012375
  0.794385 0.00117966
  0.813967  0.0011242
  0.833549  0.0010716
  0.853132  0.0010237
  0.872714 0.000982107
  0.892297 0.000946363
  0.911879 0.000915691
  0.931462 0.000890387
  0.951044 0.00087106
  0.970626 0.000857108
  0.990209 0.000848841
   1.00979 0.000846564
   1.02937 0.000850562
   1.04896 0.000861811
   1.06854 0.000881404
   1.08812 0.000907857
    1.1077 0.000939544
   1.12729 0.000976883
   1.14687  0.0010191
   1.16645 0.00106571
   1.18603 0.00111609
   1.20562 0.00117005
    1.2252 0.00122721
   1.24478   0.001288
   1.26436 0.00135284
   1.28395  0.0014203
   1.30353  0.0014904
   1.32311 0.00156162
   1.34269 0.00163509
   1.36228 0.00171395
   1.38186 0.00179409
   1.40144 0.00187687
   1.42102 0.00196526
   1.44061 0.00205369
   1.46019 0.00214044
   1.47977 0.00222738
   1.49935 0.00231442
   1.51894 0.00240036
   1.53852 0.00248541
    1.5581 0.00257155
   1.57768 0.00266031
   1.59727 0.00274834
   1.61685 0.00283425
   1.63643 0.00291499
   1.65601 0.00299345
    1.6756 0.00307468
   1.69518 0.00315951
   1.71314  0.0032316
   1.72902 0.00329992
   1.74403 0.00336313
   1.75821 0.00342266
    1.7716 0.00348049
   1.78426 0.00353623
   1.79621 0.00358902
   1.80751 0.00363963
   1.81818 0.00368982
   1.82826 0.00374019
   1.83779 0.00379097
   1.84679 0.00384164
   1.85529 0.00389171
   1.86332 0.00394059
   1.87091 0.00398787
   1.87808 0.00403319
   1.88485  0.0040761
   1.89125 0.00411624
   1.89729 0.00415383
     1.903 0.00418919
    1.9084 0.00422232
    1.9135 0.00425299
   1.91831 0.00428104
   1.92286 0.00430643
   1.92716 0.00432915
   1.93122 0.00434901
   1.93506 0.00436566
   1.93868 0.00437879
   1.94211 0.00438829
   1.94534 0.00439413
    1.9484 0.00439639
   1.95129 0.00439519
   1.95401 0.00439054
   1.95659 0.00438238
   1.95903 0.00437058
   1.96133 0.00435494
    1.9635 0.00433515
   1.96555 0.00431088
   1.96749  0.0042818
   1.96933 0.00424762
   1.97106 0.00420804
   1.97269  0.0041628
   1.97424  0.0041117
    1.9757 0.00405462
   1.97708 0.00399152
   1.97838 0.00392244
   1.97961 0.00384749
   1.98077 0.00376688
   1.98187 0.00368086
   1.98291 0.00358979
   1.98389 0.00349406
   1.98482 0.00339412
   1.98569 0.00329045
   1.98652 0.00318357
    1.9873 0.00307398
   1.98804 0.00296222
   1.98874 0.00284877
    1.9894 0.00273411
   1.99002 0.00261868
   1.99061 0.00250287
   1.99116 0.00238706
   1.99169 0.00227157
   1.99218  0.0021567
   1.99265 0.00204275
    1.9931 0.00192822
   1.99355 0.00180984
   1.99399 0.00168603
   1.99444 0.00155668
   1.99488 0.00142176
   1.99533 0.00128145
   1.99577 0.00113623
   1.99622 0.000986964
   1.99666 0.000835061
   1.99711 0.000682638
   1.99755 0.000532672
     1.998 0.000389176
   1.99844 0.000257374
   1.99889 0.000143901
   1.99933 5.70581e-05
   1.99978 7.17425e-06
         2          0
