         0          0
 0.0002225 2.00425e-05
 0.0006675 0.000179584
 0.0011125 0.000497439
 0.0015575 0.000971628
 0.0020025 0.00159783
 0.0024475 0.00236808
 0.0028925 0.00326997
 0.0033375 0.00428646
 0.0037825 0.00539637
 0.0042275  0.0065754
 0.0046725  0.0077976
 0.0051175 0.00903689
 0.0055625  0.0102686
 0.0060075  0.0114705
 0.0064525  0.0126238
 0.0068975  0.0137134
 0.0073476  0.0147402
0.00781612  0.0157207
0.00831203  0.0166535
0.00883694  0.0175214
0.00939255   0.018309
0.00998065   0.019003
 0.0106031  0.0195929
  0.011262  0.0200717
 0.0119594  0.0204355
 0.0126977  0.0206843
  0.013479  0.0208206
 0.0143061  0.0208499
 0.0151815  0.0207797
 0.0161082  0.0206189
  0.017089  0.0203773
 0.0181271  0.0200651
  0.019226  0.0196927
 0.0203891  0.0192698
 0.0216203  0.0188059
 0.0229234  0.0183097
 0.0243028  0.0177891
 0.0257628  0.0172514
 0.0273082  0.0167032
  0.028944  0.0161501
 0.0306754  0.0155975
 0.0325081    0.01505
 0.0344479  0.0145116
 0.0365012   0.013986
 0.0386746  0.0134763
  0.040975  0.0129851
   0.04341  0.0125145
 0.0459873   0.012066
 0.0487154  0.0116408
  0.051603  0.0112394
 0.0546595  0.0108622
 0.0578947   0.010509
 0.0613191  0.0101793
 0.0649437 0.00987207
 0.0687803 0.00958656
 0.0728413 0.00932183
 0.0771397  0.0090766
 0.0816895 0.00884967
 0.0865054 0.00863971
 0.0916029 0.00844498
 0.0969985 0.00826391
   0.10271  0.0080952
  0.108755 0.00793726
  0.115153 0.00778852
  0.121926 0.00764742
  0.129095 0.00751209
  0.136683 0.00738163
  0.144715 0.00725575
  0.153216 0.00713313
  0.162214  0.0070122
  0.171739  0.0068913
  0.181821 0.00676941
  0.192492 0.00664644
  0.203788 0.00652389
  0.215744  0.0064029
  0.228399 0.00628313
  0.241794 0.00616124
  0.255972 0.00603498
   0.27098 0.00590364
  0.286865 0.00576436
  0.304824 0.00560878
  0.324407 0.00543849
  0.343989 0.00527237
  0.363571 0.00510205
  0.383154 0.00492829
  0.402736 0.00475547
  0.422319 0.00458654
  0.441901 0.00442195
  0.461484 0.00426107
  0.481066 0.00410393
  0.500648 0.00394769
  0.520231 0.00379482
  0.539813 0.00364452
  0.559396 0.00349463
  0.578978 0.00334445
   0.59856  0.0031956
  0.618143  0.0030485
  0.637725   0.002905
  0.657308 0.00276647
   0.67689 0.00263256
  0.696473 0.00250336
  0.716055 0.00237841
  0.735637 0.00225664
   0.75522 0.00213833
  0.774802 0.00202457
  0.794385 0.00191663
  0.813967 0.00181396
  0.833549 0.00171901
  0.853132 0.00163251
  0.872714 0.00155489
  0.892297 0.00148726
  0.911879 0.00142999
  0.931462 0.00138398
  0.951044 0.00134972
  0.970626 0.00132833
  0.990209 0.00131941
   1.00979 0.00132313
   1.02937 0.00134055
   1.04896 0.00137204
   1.06854 0.00141676
   1.08812  0.0014735
    1.1077 0.00154151
   1.12729 0.00162032
   1.14687 0.00170859
   1.16645  0.0018043
   1.18603 0.00190817
   1.20562 0.00202115
    1.2252 0.00214051
   1.24478 0.00226559
   1.26436 0.00239689
   1.28395 0.00253393
   1.30353 0.00267361
   1.32311  0.0028149
   1.34269 0.00295783
   1.36228 0.00310391
   1.38186  0.0032529
   1.40144 0.00340397
   1.42102 0.00355757
   1.44061 0.00371676
   1.46019 0.00387754
   1.47977 0.00403925
   1.49935 0.00420286
   1.51894 0.00436863
   1.53852 0.00453524
    1.5581 0.00470098
   1.57768 0.00486551
   1.59727 0.00502865
   1.61685 0.00518884
   1.63643 0.00534873
   1.65601 0.00550646
    1.6756 0.00566504
   1.69518 0.00583048
   1.71314 0.00598065
   1.72902 0.00611528
   1.74403 0.00624306
   1.75821 0.00636424
    1.7716 0.00647948
   1.78426  0.0065909
   1.79621 0.00669964
   1.80751 0.00680615
   1.81818 0.00691181
   1.82826 0.00701745
   1.83779 0.00712329
   1.84679 0.00722987
   1.85529 0.00733877
   1.86332 0.00745166
   1.87091 0.00757031
   1.87808 0.00769613
   1.88485  0.0078294
   1.89125 0.00797101
   1.89729 0.00812244
     1.903 0.00828555
    1.9084 0.00846199
    1.9135  0.0086527
   1.91831 0.00885888
   1.92286 0.00908202
   1.92716 0.00932357
   1.93122 0.00958491
   1.93506 0.00986715
   1.93868  0.0101712
   1.94211   0.010498
   1.94534  0.0108482
    1.9484  0.0112226
   1.95129  0.0116212
   1.95401   0.012044
   1.95659  0.0124902
   1.95903  0.0129588
   1.96133  0.0134479
    1.9635  0.0139554
   1.96555  0.0144787
   1.96749  0.0150149
   1.96933  0.0155605
   1.97106  0.0161112
   1.97269  0.0166627
   1.97424  0.0172096
    1.9757  0.0177462
   1.97708   0.018266
   1.97838  0.0187617
   1.97961  0.0192256
   1.98077  0.0196488
   1.98187  0.0200219
   1.98291  0.0203352
   1.98389  0.0205784
   1.98482  0.0207411
   1.98569  0.0208137
   1.98652   0.020787
    1.9873  0.0206537
   1.98804  0.0204082
   1.98874  0.0200478
    1.9894  0.0195727
   1.99002  0.0189863
   1.99061  0.0182958
   1.99116  0.0175115
   1.99169  0.0166466
   1.99218  0.0157165
   1.99265  0.0147384
    1.9931  0.0137136
   1.99355  0.0126256
   1.99399  0.0114736
   1.99444  0.0102726
   1.99488 0.00904151
   1.99533  0.0078024
   1.99577 0.00658007
   1.99622 0.00540064
   1.99666 0.00429015
   1.99711 0.00327296
   1.99755 0.00237035
     1.998 0.00159942
   1.99844 0.000972625
   1.99889 0.000497961
   1.99933 0.000179777
   1.99978 2.00646e-05
         2          0
