         0   -47.4212
 0.0002225    -47.409
 0.0006675   -47.3739
 0.0011125   -47.3058
 0.0015575   -47.1812
 0.0020025   -46.9778
 0.0024475   -46.6756
 0.0028925   -46.2585
 0.0033375   -45.7153
 0.0037825   -45.0404
 0.0042275   -44.2343
 0.0046725   -43.3031
 0.0051175   -42.2574
 0.0055625   -41.1116
 0.0060075   -39.8826
 0.0064525   -38.5884
 0.0068975   -37.2464
 0.0073476    -35.856
0.00781612   -34.3909
0.00831203    -32.841
0.00883694   -31.2211
0.00939255   -29.5475
0.00998065   -27.8379
 0.0106031   -26.1108
  0.011262   -24.3854
 0.0119594     -22.68
 0.0126977   -21.0115
  0.013479   -19.3955
 0.0143061   -17.8457
 0.0151815    -16.373
 0.0161082   -14.9853
  0.017089   -13.6876
 0.0181271   -12.4817
  0.019226   -11.3673
 0.0203891    -10.342
 0.0216203   -9.40221
 0.0229234   -8.54447
 0.0243028   -7.76511
 0.0257628    -7.0593
 0.0273082   -6.42082
  0.028944   -5.84291
 0.0306754   -5.31947
 0.0325081   -4.84574
 0.0344479   -4.41812
 0.0365012   -4.03291
 0.0386746   -3.68526
  0.040975   -3.36977
   0.04341   -3.08154
 0.0459873   -2.81979
 0.0487154   -2.58891
  0.051603   -2.39015
 0.0546595   -2.21597
 0.0578947   -2.05641
 0.0613191   -1.90741
 0.0649437   -1.76926
 0.0687803   -1.64578
 0.0728413   -1.54246
 0.0771397   -1.45399
 0.0816895    -1.3714
 0.0865054   -1.29631
 0.0916029   -1.23249
 0.0969985   -1.17683
   0.10271   -1.12264
  0.108755   -1.07069
  0.115153   -1.02432
  0.121926  -0.983515
  0.129095  -0.953218
  0.136683  -0.926144
  0.144715  -0.890339
  0.153216  -0.850264
  0.162214  -0.810666
  0.171739  -0.770366
  0.181821  -0.731466
  0.192492  -0.708191
  0.203788  -0.697526
  0.215744  -0.665189
  0.228399  -0.616358
  0.241794  -0.584669
  0.255972  -0.571714
   0.27098  -0.557289
  0.286865  -0.528769
  0.304824  -0.501817
  0.324407  -0.482233
  0.343989  -0.454236
  0.363571   -0.43477
  0.383154  -0.430548
  0.402736  -0.412937
  0.422319  -0.383136
  0.441901  -0.358134
  0.461484  -0.350551
  0.481066  -0.342494
  0.500648  -0.318171
  0.520231   -0.30562
  0.539813  -0.315972
  0.559396  -0.322547
  0.578978  -0.310004
   0.59856   -0.29477
  0.618143  -0.289606
  0.637725    -0.2822
  0.657308   -0.26361
   0.67689  -0.244199
  0.696473   -0.22711
  0.716055  -0.211315
  0.735637   -0.20085
   0.75522   -0.19574
  0.774802  -0.190487
  0.794385   -0.18554
  0.813967  -0.175127
  0.833549  -0.154717
  0.853132  -0.137836
  0.872714  -0.127463
  0.892297   -0.11462
  0.911879 -0.0938946
  0.931462 -0.0726837
  0.951044 -0.0590985
  0.970626 -0.0440269
  0.990209  -0.019248
   1.00979 0.00819734
   1.02937  0.0258717
   1.04896  0.0378054
   1.06854  0.0563739
   1.08812  0.0771725
    1.1077  0.0951254
   1.12729    0.11241
   1.14687   0.129448
   1.16645   0.144865
   1.18603   0.156565
   1.20562   0.165181
    1.2252   0.169219
   1.24478   0.173441
   1.26436   0.187134
   1.28395   0.203796
   1.30353   0.216369
   1.32311   0.228543
   1.34269   0.238383
   1.36228    0.24834
   1.38186   0.260293
   1.40144   0.259111
   1.42102   0.256816
   1.44061   0.272261
   1.46019   0.296425
   1.47977   0.328003
   1.49935   0.350744
   1.51894   0.358313
   1.53852   0.360838
    1.5581   0.353649
   1.57768   0.349968
   1.59727   0.376111
   1.61685   0.421473
   1.63643   0.462867
   1.65601   0.504259
    1.6756   0.521793
   1.69518   0.513056
   1.71314   0.532423
   1.72902   0.562512
   1.74403   0.575939
   1.75821   0.591921
    1.7716   0.610384
   1.78426   0.641487
   1.79621   0.675095
   1.80751   0.689042
   1.81818   0.692041
   1.82826   0.701608
   1.83779   0.728637
   1.84679   0.767029
   1.85529   0.815784
   1.86332   0.873921
   1.87091   0.923974
   1.87808   0.969665
   1.88485    1.01934
   1.89125    1.06333
   1.89729    1.10404
     1.903    1.15333
    1.9084    1.21449
    1.9135    1.28803
   1.91831    1.37156
   1.92286    1.46023
   1.92716    1.55593
   1.93122    1.66594
   1.93506    1.79824
   1.93868    1.95403
   1.94211    2.12451
   1.94534    2.30061
    1.9484     2.4812
   1.95129    2.67168
   1.95401    2.87975
   1.95659    3.11411
   1.95903    3.37992
   1.96133    3.67865
    1.9635    4.01479
   1.96555    4.39546
   1.96749    4.82665
   1.96933    5.31243
   1.97106    5.85477
   1.97269    6.45511
   1.97424     7.1159
    1.9757    7.84017
   1.97708    8.63187
   1.97838    9.49648
   1.97961    10.4397
   1.98077    11.4669
   1.98187     12.583
   1.98291    13.7912
   1.98389    15.0926
   1.98482    16.4856
   1.98569    17.9667
   1.98652    19.5294
    1.9873    21.1647
   1.98804    22.8603
   1.98874    24.6015
    1.9894    26.3709
   1.99002    28.1494
   1.99061     29.917
   1.99116    31.6534
   1.99169    33.3392
   1.99218     34.956
   1.99265    36.4876
    1.9931    37.9437
   1.99355    39.3515
   1.99399    40.7111
   1.99444    42.0036
   1.99488    43.2098
   1.99533    44.3118
   1.99577     45.294
   1.99622    46.1448
   1.99666    46.8579
   1.99711    47.4328
   1.99755    47.8752
     1.998    48.1968
   1.99844    48.4144
   1.99889    48.5486
   1.99933    48.6225
   1.99978    48.6602
         2    48.6731
