         0    404.847
 0.0002225    403.407
 0.0006675    401.709
 0.0011125    400.445
 0.0015575    398.244
 0.0020025    393.975
 0.0024475    386.797
 0.0028925    376.259
 0.0033375    362.373
 0.0037825      345.6
 0.0042275    326.742
 0.0046725    306.786
 0.0051175     286.73
 0.0055625    267.446
 0.0060075      249.6
 0.0064525    233.612
 0.0068975    219.668
 0.0073476    207.598
0.00781612    197.043
0.00831203    187.903
0.00883694    180.107
0.00939255    173.477
0.00998065    167.762
 0.0106031    162.673
  0.011262    157.919
 0.0119594    153.239
 0.0126977    148.427
  0.013479    143.338
 0.0143061    137.899
 0.0151815    132.092
 0.0161082    125.951
  0.017089    119.542
 0.0181271    112.951
  0.019226    106.271
 0.0203891    99.5932
 0.0216203     92.998
 0.0229234    86.5548
 0.0243028      80.32
 0.0257628    74.3372
 0.0273082     68.638
  0.028944    63.2445
 0.0306754     58.171
 0.0325081    53.4247
 0.0344479    49.0071
 0.0365012    44.9136
 0.0386746    41.1343
  0.040975     37.655
   0.04341    34.4596
 0.0459873    31.5353
 0.0487154    28.8678
  0.051603    26.4385
 0.0546595    24.2265
 0.0578947    22.2117
 0.0613191    20.3825
 0.0649437    18.7264
 0.0687803    17.2209
 0.0728413    15.8491
 0.0771397    14.6028
 0.0816895    13.4692
 0.0865054    12.4353
 0.0916029    11.4949
 0.0969985    10.6396
   0.10271    9.85788
  0.108755    9.14202
  0.115153    8.48276
  0.121926    7.87372
  0.129095    7.31403
  0.136683    6.79977
  0.144715    6.32354
  0.153216    5.88352
  0.162214    5.48004
  0.171739    5.10816
  0.181821    4.76303
  0.192492    4.44364
  0.203788     4.1441
  0.215744    3.85836
  0.228399     3.5913
  0.241794    3.34295
  0.255972    3.10993
   0.27098    2.89529
  0.286865    2.65336
  0.304824    2.38666
  0.324407    2.21347
  0.343989    2.09544
  0.363571    1.98823
  0.383154    1.89032
  0.402736    1.79868
  0.422319    1.71491
  0.441901    1.63549
  0.461484    1.55968
  0.481066    1.48601
  0.500648     1.4134
  0.520231    1.34524
  0.539813    1.28154
  0.559396    1.22145
  0.578978    1.16298
   0.59856     1.1061
  0.618143    1.05051
  0.637725   0.997127
  0.657308   0.946662
   0.67689   0.899679
  0.696473   0.855026
  0.716055    0.81187
  0.735637   0.770327
   0.75522   0.731735
  0.774802   0.695738
  0.794385   0.662807
  0.813967   0.633715
  0.833549   0.607445
  0.853132   0.584053
  0.872714   0.563317
  0.892297   0.545756
  0.911879    0.53121
  0.931462   0.519136
  0.951044   0.510548
  0.970626   0.504793
  0.990209   0.502003
   1.00979   0.502169
   1.02937   0.505749
   1.04896   0.512498
   1.06854   0.522114
   1.08812   0.535007
    1.1077   0.551632
   1.12729   0.570736
   1.14687   0.590499
   1.16645   0.612531
   1.18603   0.637975
   1.20562   0.666087
    1.2252   0.697735
   1.24478   0.732045
   1.26436   0.768173
   1.28395   0.806332
   1.30353   0.848579
   1.32311   0.893839
   1.34269   0.940815
   1.36228   0.990159
   1.38186    1.04327
   1.40144    1.09882
   1.42102    1.15544
   1.44061     1.2125
   1.46019     1.2745
   1.47977    1.34097
   1.49935    1.40928
   1.51894    1.48184
   1.53852     1.5554
    1.5581    1.63269
   1.57768    1.71405
   1.59727    1.79922
   1.61685    1.88918
   1.63643    1.98993
   1.65601     2.1035
    1.6756    2.22741
   1.69518    2.40896
   1.71314    2.68484
   1.72902    2.93348
   1.74403    3.15102
   1.75821    3.38693
    1.7716    3.63863
   1.78426    3.90742
   1.79621    4.19015
   1.80751    4.48917
   1.81818    4.81019
   1.82826    5.15655
   1.83779    5.53118
   1.84679    5.93656
   1.85529    6.37627
   1.86332    6.85174
   1.87091    7.36438
   1.87808    7.91812
   1.88485    8.52288
   1.89125    9.18371
   1.89729    9.90708
     1.903    10.6989
    1.9084    11.5605
    1.9135     12.502
   1.91831    13.5343
   1.92286    14.6669
   1.92716    15.9106
   1.93122    17.2777
   1.93506    18.7795
   1.93868    20.4313
   1.94211    22.2487
   1.94534    24.2459
    1.9484    26.4421
   1.95129    28.8594
   1.95401     31.517
   1.95659    34.4274
   1.95903    37.6057
   1.96133    41.0736
    1.9635    44.8451
   1.96555    48.9272
   1.96749     53.328
   1.96933    58.0536
   1.97106    63.1039
   1.97269    68.4733
   1.97424      74.15
    1.9757    80.1135
   1.97708    86.3314
   1.97838     92.759
   1.97961    99.3388
   1.98077    106.002
   1.98187    112.667
   1.98291    119.244
   1.98389    125.641
   1.98482    131.771
   1.98569    137.568
   1.98652    142.999
    1.9873    148.079
   1.98804    152.884
   1.98874    157.555
    1.9894    162.299
   1.99002    167.377
   1.99061     173.08
   1.99116    179.696
   1.99169    187.481
   1.99218    196.612
   1.99265    207.165
    1.9931    219.241
   1.99355    233.203
   1.99399    249.226
   1.99444    267.124
   1.99488    286.477
   1.99533    306.619
   1.99577    326.672
   1.99622     345.63
   1.99666    362.501
   1.99711    376.474
   1.99755    387.084
     1.998    394.316
   1.99844    398.621
   1.99889    400.846
   1.99933    402.127
   1.99978    403.842
         2    405.294
