         0  -0.846682
 0.0002225  -0.851008
 0.0006675   -2.55927
 0.0011125   -4.14505
 0.0015575   -5.47088
 0.0020025   -6.42873
 0.0024475   -6.94559
 0.0028925   -6.98587
 0.0033375   -6.55025
 0.0037825   -5.67116
 0.0042275   -4.40566
 0.0046725   -2.82688
 0.0051175   -1.01538
 0.0055625   0.948452
 0.0060075    2.99017
 0.0064525    5.04509
 0.0068975    7.05961
 0.0073476    9.01141
0.00781612    10.9164
0.00831203    12.7699
0.00883694    14.5349
0.00939255    16.1777
0.00998065      17.67
 0.0106031    18.9902
  0.011262    20.1235
 0.0119594    21.0619
 0.0126977     21.804
  0.013479    22.3541
 0.0143061    22.7208
 0.0151815    22.9159
 0.0161082     22.954
  0.017089    22.8503
 0.0181271     22.621
  0.019226    22.2819
 0.0203891    21.8482
 0.0216203    21.3343
 0.0229234    20.7533
 0.0243028    20.1169
 0.0257628    19.4357
 0.0273082    18.7193
  0.028944    17.9763
 0.0306754    17.2146
 0.0325081    16.4412
 0.0344479    15.6624
 0.0365012    14.8843
 0.0386746    14.1119
  0.040975    13.3497
   0.04341    12.6017
 0.0459873    11.8713
 0.0487154    11.1617
  0.051603    10.4754
 0.0546595    9.81437
 0.0578947     9.1808
 0.0613191    8.57587
 0.0649437    8.00004
 0.0687803     7.4538
 0.0728413    6.93725
 0.0771397    6.44983
 0.0816895    5.99131
 0.0865054    5.56134
 0.0916029    5.15884
 0.0969985    4.78277
   0.10271    4.43217
  0.108755    4.10604
  0.115153    3.80324
  0.121926    3.52193
  0.129095    3.26107
  0.136683    3.01943
  0.144715    2.79546
  0.153216    2.58795
  0.162214    2.39583
  0.171739    2.21786
  0.181821    2.05374
  0.192492    1.90272
  0.203788    1.76235
  0.215744    1.63189
  0.228399    1.51088
  0.241794    1.39865
  0.255972     1.2946
   0.27098    1.19775
  0.286865    1.10845
  0.304824    1.01808
  0.324407   0.940135
  0.343989   0.873609
  0.363571   0.816754
  0.383154    0.76667
  0.402736    0.72156
  0.422319   0.680734
  0.441901   0.643361
  0.461484   0.608167
  0.481066   0.575207
  0.500648   0.544195
  0.520231   0.514418
  0.539813   0.485947
  0.559396   0.459474
  0.578978    0.43393
   0.59856   0.409517
  0.618143    0.38577
  0.637725   0.362439
  0.657308   0.339381
   0.67689   0.316694
  0.696473   0.294674
  0.716055   0.273822
  0.735637   0.253317
   0.75522   0.233063
  0.774802   0.213124
  0.794385    0.19398
  0.813967   0.175265
  0.833549   0.156813
  0.853132   0.138212
  0.872714   0.119477
  0.892297   0.100753
  0.911879  0.0821203
  0.931462  0.0637662
  0.951044  0.0457566
  0.970626  0.0277155
  0.990209 0.00971443
   1.00979 -0.00819982
   1.02937 -0.0259829
   1.04896 -0.0438369
   1.06854 -0.0618151
   1.08812 -0.0798449
    1.1077 -0.0978471
   1.12729  -0.115924
   1.14687  -0.134161
   1.16645  -0.152851
   1.18603  -0.171978
   1.20562  -0.191111
    1.2252  -0.210103
   1.24478  -0.229403
   1.26436  -0.249172
   1.28395  -0.269241
   1.30353  -0.290033
   1.32311  -0.311175
   1.34269   -0.33264
   1.36228  -0.355255
   1.38186  -0.378375
   1.40144  -0.402191
   1.42102  -0.427543
   1.44061  -0.454657
   1.46019  -0.483365
   1.47977   -0.51287
   1.49935  -0.542484
   1.51894  -0.573633
   1.53852  -0.607687
    1.5581  -0.645795
   1.57768  -0.687047
   1.59727  -0.731482
   1.61685  -0.778847
   1.63643  -0.831935
   1.65601   -0.89295
    1.6756  -0.964695
   1.69518   -1.04829
   1.71314   -1.14386
   1.72902    -1.2368
   1.74403   -1.33636
   1.75821   -1.44156
    1.7716   -1.55468
   1.78426   -1.67617
   1.79621   -1.80774
   1.80751   -1.94888
   1.81818   -2.10039
   1.82826   -2.26416
   1.83779   -2.44183
   1.84679   -2.63366
   1.85529   -2.84029
   1.86332   -3.06313
   1.87091   -3.30362
   1.87808   -3.56339
   1.88485    -3.8437
   1.89125   -4.14594
   1.89729   -4.47114
     1.903   -4.82038
    1.9084   -5.19545
    1.9135   -5.59727
   1.91831   -6.02665
   1.92286    -6.4849
   1.92716   -6.97241
   1.93122   -7.48923
   1.93506   -8.03555
   1.93868   -8.61103
   1.94211    -9.2153
   1.94534   -9.84793
    1.9484   -10.5077
   1.95129   -11.1929
   1.95401   -11.9013
   1.95659   -12.6305
   1.95903   -13.3775
   1.96133   -14.1387
    1.9635   -14.9102
   1.96555   -15.6873
   1.96749   -16.4648
   1.96933   -17.2368
   1.97106   -17.9969
   1.97269   -18.7384
   1.97424   -19.4533
    1.9757   -20.1327
   1.97708   -20.7667
   1.97838   -21.3448
   1.97961   -21.8552
   1.98077   -22.2852
   1.98187    -22.621
   1.98291   -22.8475
   1.98389   -22.9491
   1.98482   -22.9099
   1.98569   -22.7143
   1.98652   -22.3479
    1.9873   -21.7985
   1.98804   -21.0575
   1.98874   -20.1204
    1.9894   -18.9887
   1.99002     -17.67
   1.99061    -16.179
   1.99116   -14.5373
   1.99169   -12.7731
   1.99218   -10.9199
   1.99265    -9.0146
    1.9931     -7.062
   1.99355    -5.0461
   1.99399   -2.98925
   1.99444  -0.945088
   1.99488    1.02158
   1.99533    2.83614
   1.99577    4.41796
   1.99622    5.68621
   1.99666    6.56747
   1.99711    7.00441
   1.99755    6.96436
     1.998    6.44651
   1.99844    5.48643
   1.99889    4.15721
   1.99933    2.56705
   1.99978   0.853712
         2   0.849432
