         0  0.0569352
 0.0002225  0.0569352
 0.0006675   0.512622
 0.0011125    1.42379
 0.0015575    2.78617
 0.0020025    4.58756
 0.0024475    6.80468
 0.0028925    9.40129
 0.0033375    12.3278
 0.0037825    15.5228
 0.0042275    18.9159
 0.0046725    22.4317
 0.0051175    25.9944
 0.0055625    29.5318
 0.0060075    32.9786
 0.0064525     36.279
 0.0068975    39.3879
 0.0073476    42.3057
0.00781612    45.0769
0.00831203    47.6927
0.00883694    50.0999
0.00939255    52.2493
0.00998065    54.0984
 0.0106031    55.6133
  0.011262    56.7706
 0.0119594    57.5576
 0.0126977    57.9729
  0.013479    58.0251
 0.0143061     57.732
 0.0151815    57.1185
 0.0161082    56.2151
  0.017089    55.0555
 0.0181271     53.675
  0.019226    52.1092
 0.0203891    50.3924
 0.0216203    48.5569
 0.0229234    46.6326
 0.0243028    44.6465
 0.0257628    42.6228
 0.0273082    40.5827
  0.028944     38.545
 0.0306754     36.526
 0.0325081    34.5397
 0.0344479    32.5981
 0.0365012    30.7115
 0.0386746    28.8881
  0.040975    27.1348
   0.04341    25.4565
 0.0459873    23.8569
 0.0487154    22.3377
  0.051603    20.9002
 0.0546595    19.5443
 0.0578947    18.2691
 0.0613191    17.0724
 0.0649437    15.9514
 0.0687803    14.9031
 0.0728413    13.9242
 0.0771397    13.0113
 0.0816895    12.1607
 0.0865054    11.3687
 0.0916029    10.6321
 0.0969985    9.94755
   0.10271    9.31112
  0.108755     8.7187
  0.115153     8.1673
  0.121926    7.65428
  0.129095    7.17673
  0.136683     6.7322
  0.144715    6.31841
  0.153216    5.93267
  0.162214    5.57204
  0.171739    5.23504
  0.181821    4.92027
  0.192492      4.625
  0.203788    4.34719
  0.215744     4.0861
  0.228399    3.83981
  0.241794    3.60719
  0.255972    3.38768
   0.27098    3.18276
  0.286865    2.98163
  0.304824     2.7802
  0.324407    2.59331
  0.343989    2.43749
  0.363571    2.29686
  0.383154    2.17162
  0.402736    2.05649
  0.422319    1.94962
  0.441901    1.85078
  0.461484    1.75797
  0.481066    1.66854
  0.500648    1.58266
  0.520231    1.50047
  0.539813    1.42306
  0.559396     1.3496
  0.578978    1.27903
   0.59856    1.21068
  0.618143    1.14471
  0.637725    1.08217
  0.657308    1.02279
   0.67689   0.965713
  0.696473   0.912067
  0.716055    0.86148
  0.735637   0.813481
   0.75522   0.767693
  0.774802    0.72457
  0.794385   0.685059
  0.813967   0.648693
  0.833549   0.615462
  0.853132   0.585591
  0.872714   0.559262
  0.892297   0.536694
  0.911879   0.517563
  0.931462   0.502098
  0.951044   0.490453
  0.970626   0.482439
  0.990209   0.478413
   1.00979   0.478522
   1.02937   0.482843
   1.04896   0.491134
   1.06854   0.503421
   1.08812   0.519883
    1.1077   0.539849
   1.12729   0.563187
   1.14687   0.589928
   1.16645   0.619862
   1.18603   0.652573
   1.20562   0.688028
    1.2252   0.726185
   1.24478   0.766903
   1.26436   0.810665
   1.28395   0.857831
   1.30353   0.907854
   1.32311   0.961039
   1.34269    1.01744
   1.36228    1.07662
   1.38186    1.13883
   1.40144    1.20372
   1.42102    1.27184
   1.44061    1.34353
   1.46019    1.41794
   1.47977    1.49601
   1.49935    1.57806
   1.51894    1.66315
   1.53852    1.75333
    1.5581    1.84942
   1.57768    1.95147
   1.59727    2.06119
   1.61685    2.17911
   1.63643    2.30875
   1.65601    2.45376
    1.6756    2.61707
   1.69518    2.81323
   1.71314    3.02341
   1.72902    3.23088
   1.74403    3.43957
   1.75821    3.66182
    1.7716    3.89638
   1.78426    4.14476
   1.79621    4.40829
   1.80751    4.68705
   1.81818    4.98245
   1.82826    5.29694
   1.83779    5.63313
   1.84679    5.99264
   1.85529    6.37765
   1.86332    6.79044
   1.87091    7.23355
   1.87808    7.71012
   1.88485    8.22212
   1.89125    8.77147
   1.89729    9.36207
     1.903    9.99761
    1.9084     10.681
    1.9135     11.415
   1.91831    12.2034
   1.92286    13.0511
   1.92716    13.9613
   1.93122     14.937
   1.93506    15.9819
   1.93868    17.0998
   1.94211    18.2936
   1.94534     19.566
    1.9484    20.9186
   1.95129    22.3524
   1.95401    23.8674
   1.95659    25.4627
   1.95903    27.1359
   1.96133    28.8828
    1.9635    30.6986
   1.96555    32.5767
   1.96749     34.509
   1.96933    36.4854
   1.97106    38.4941
   1.97269     40.521
   1.97424    42.5499
    1.9757    44.5623
   1.97708    46.5372
   1.97838    48.4507
   1.97961    50.2763
   1.98077    51.9842
   1.98187    53.5423
   1.98291    54.9165
   1.98389    56.0714
   1.98482    56.9718
   1.98569     57.584
   1.98652    57.8778
    1.9873    57.8281
   1.98804    57.4172
   1.98874     56.636
    1.9894     55.486
   1.99002    53.9794
   1.99061    52.1396
   1.99116         50
   1.99169    47.6027
   1.99218    44.9968
   1.99265    42.2352
    1.9931    39.3265
   1.99355    36.2264
   1.99399    32.9344
   1.99444    29.4953
   1.99488    25.9649
   1.99533    22.4084
   1.99577    18.8978
   1.99622    15.5092
   1.99666    12.3178
   1.99711    9.39413
   1.99755    6.79977
     1.998    4.58438
   1.99844    2.78429
   1.99889    1.42284
   1.99933   0.512284
   1.99978  0.0568978
         2  0.0568978
