         0    144.305
 0.0002225    131.513
 0.0006675    109.482
 0.0011125    91.3706
 0.0015575    76.3978
 0.0020025    64.1338
 0.0024475    54.3148
 0.0028925    46.7256
 0.0033375      41.14
 0.0037825    37.3017
 0.0042275    34.9292
 0.0046725     33.734
 0.0051175    33.4398
 0.0055625    33.7985
 0.0060075    34.5998
 0.0064525     35.674
 0.0068975    36.8862
 0.0073476     38.134
0.00781612    39.3715
0.00831203    40.5819
0.00883694     41.721
0.00939255     42.747
0.00998065    43.6275
 0.0106031    44.3397
  0.011262    44.8701
 0.0119594     45.213
 0.0126977    45.3691
  0.013479    45.3447
 0.0143061    45.1499
 0.0151815    44.7972
 0.0161082    44.3011
  0.017089    43.6762
 0.0181271    42.9372
  0.019226    42.0981
 0.0203891     41.172
 0.0216203    40.1717
 0.0229234    39.1086
 0.0243028    37.9926
 0.0257628     36.832
 0.0273082     35.635
  0.028944    34.4096
 0.0306754    33.1637
 0.0325081    31.9036
 0.0344479    30.6347
 0.0365012    29.3617
 0.0386746    28.0905
  0.040975    26.8271
   0.04341    25.5765
 0.0459873    24.3452
 0.0487154    23.1399
  0.051603    21.9636
 0.0546595    20.8185
 0.0578947    19.7079
 0.0613191     18.635
 0.0649437    17.6015
 0.0687803    16.6105
 0.0728413     15.663
 0.0771397     14.758
 0.0816895    13.8959
 0.0865054    13.0762
 0.0916029    12.2976
 0.0969985    11.5599
   0.10271    10.8621
  0.108755     10.203
  0.115153    9.58325
  0.121926     9.0023
  0.129095    8.45777
  0.136683    7.94625
  0.144715    7.46512
  0.153216    7.01131
  0.162214    6.58412
  0.171739    6.18316
  0.181821    5.80512
  0.192492    5.45024
  0.203788    5.11458
  0.215744    4.79628
  0.228399    4.49541
  0.241794    4.20899
  0.255972    3.93722
   0.27098    3.68495
  0.286865     3.4056
  0.304824    3.10314
  0.324407    2.89165
  0.343989    2.73546
  0.363571    2.59124
  0.383154    2.45925
  0.402736    2.33792
  0.422319    2.22481
  0.441901    2.11591
  0.461484    2.01329
  0.481066     1.9134
  0.500648    1.81393
  0.520231    1.72089
  0.539813    1.63438
  0.559396    1.55039
  0.578978    1.46869
   0.59856    1.39073
  0.618143    1.31439
  0.637725    1.23923
  0.657308    1.16954
   0.67689    1.10415
  0.696473    1.04157
  0.716055   0.982951
  0.735637   0.926557
   0.75522   0.873964
  0.774802   0.822414
  0.794385   0.774589
  0.813967   0.731378
  0.833549   0.692182
  0.853132   0.656563
  0.872714   0.625517
  0.892297   0.598244
  0.911879   0.574919
  0.931462   0.555902
  0.951044   0.540918
  0.970626   0.531012
  0.990209   0.526709
   1.00979   0.526889
   1.02937   0.531272
   1.04896   0.540772
   1.06854   0.554177
   1.08812   0.571652
    1.1077   0.594962
   1.12729   0.622835
   1.14687   0.654838
   1.16645   0.691384
   1.18603   0.731525
   1.20562   0.774408
    1.2252   0.819622
   1.24478   0.868232
   1.26436   0.919233
   1.28395   0.973242
   1.30353    1.03173
   1.32311    1.09466
   1.34269    1.16088
   1.36228    1.22832
   1.38186    1.30019
   1.40144    1.37608
   1.42102    1.45363
   1.44061    1.53563
   1.46019    1.62239
   1.47977     1.7117
   1.49935    1.80352
   1.51894    1.90158
   1.53852     2.0022
    1.5581    2.10829
   1.57768    2.22097
   1.59727    2.33883
   1.61685    2.46616
   1.63643     2.6068
   1.65601    2.75656
    1.6756    2.91781
   1.69518    3.14016
   1.71314    3.45539
   1.72902    3.74362
   1.74403    4.00394
   1.75821    4.28457
    1.7716    4.57464
   1.78426    4.87975
   1.79621    5.20465
   1.80751    5.54775
   1.81818    5.90811
   1.82826    6.28746
   1.83779    6.68848
   1.84679    7.11247
   1.85529    7.56229
   1.86332    8.04077
   1.87091    8.55016
   1.87808    9.09228
   1.88485    9.67071
   1.89125    10.2887
   1.89729    10.9454
     1.903    11.6394
    1.9084    12.3741
    1.9135    13.1533
   1.91831    13.9776
   1.92286     14.846
   1.92716    15.7559
   1.93122    16.7063
   1.93506    17.6974
   1.93868    18.7301
   1.94211    19.8034
   1.94534    20.9156
    1.9484    22.0642
   1.95129    23.2447
   1.95401    24.4525
   1.95659    25.6829
   1.95903    26.9294
   1.96133    28.1866
    1.9635     29.451
   1.96555     30.718
   1.96749    31.9823
   1.96933    33.2374
   1.97106    34.4774
   1.97269    35.6973
   1.97424    36.8904
    1.9757    38.0478
   1.97708    39.1606
   1.97838      40.22
   1.97961    41.2171
   1.98077    42.1412
   1.98187    42.9803
   1.98291    43.7212
   1.98389    44.3501
   1.98482    44.8522
   1.98569    45.2122
   1.98652    45.4153
    1.9873    45.4482
   1.98804    45.3004
   1.98874    44.9656
    1.9894    44.4426
   1.99002     43.737
   1.99061    42.8624
   1.99116    41.8413
   1.99169    40.7061
   1.99218    39.4987
   1.99265    38.2636
    1.9931    37.0174
   1.99355    35.8065
   1.99399    34.7337
   1.99444    33.9344
   1.99488    33.5786
   1.99533    33.8775
   1.99577    35.0799
   1.99622    37.4634
   1.99666    41.3177
   1.99711    46.9256
   1.99755    54.5446
     1.998    64.4021
   1.99844    76.7146
   1.99889    91.7472
   1.99933    109.932
   1.99978    132.053
         2    144.898
