         0   0.215724
 0.0002225          0
 0.0006675          0
 0.0011125          0
 0.0015575          0
 0.0020025          0
 0.0024475          0
 0.0028925          0
 0.0033375          0
 0.0037825          0
 0.0042275          0
 0.0046725          0
 0.0051175          0
 0.0055625          0
 0.0060075          0
 0.0064525          0
 0.0068975          0
 0.0073476          0
0.00781612          0
0.00831203          0
0.00883694          0
0.00939255          0
0.00998065          0
 0.0106031          0
  0.011262          0
 0.0119594          0
 0.0126977          0
  0.013479          0
 0.0143061          0
 0.0151815          0
 0.0161082          0
  0.017089          0
 0.0181271          0
  0.019226          0
 0.0203891          0
 0.0216203          0
 0.0229234          0
 0.0243028          0
 0.0257628          0
 0.0273082          0
  0.028944          0
 0.0306754          0
 0.0325081          0
 0.0344479          0
 0.0365012          0
 0.0386746          0
  0.040975          0
   0.04341          0
 0.0459873          0
 0.0487154          0
  0.051603          0
 0.0546595          0
 0.0578947          0
 0.0613191          0
 0.0649437          0
 0.0687803          0
 0.0728413          0
 0.0771397          0
 0.0816895          0
 0.0865054          0
 0.0916029          0
 0.0969985          0
   0.10271          0
  0.108755          0
  0.115153          0
  0.121926          0
  0.129095          0
  0.136683          0
  0.144715          0
  0.153216          0
  0.162214          0
  0.171739          0
  0.181821          0
  0.192492          0
  0.203788          0
  0.215744          0
  0.228399          0
  0.241794          0
  0.255972          0
   0.27098          0
  0.286865          0
  0.304824          0
  0.324407          0
  0.343989          0
  0.363571          0
  0.383154          0
  0.402736          0
  0.422319          0
  0.441901          0
  0.461484          0
  0.481066          0
  0.500648          0
  0.520231          0
  0.539813          0
  0.559396          0
  0.578978          0
   0.59856          0
  0.618143          0
  0.637725          0
  0.657308          0
   0.67689          0
  0.696473          0
  0.716055          0
  0.735637          0
   0.75522          0
  0.774802          0
  0.794385          0
  0.813967          0
  0.833549          0
  0.853132          0
  0.872714          0
  0.892297          0
  0.911879          0
  0.931462          0
  0.951044          0
  0.970626          0
  0.990209          0
   1.00979          0
   1.02937          0
   1.04896          0
   1.06854          0
   1.08812          0
    1.1077          0
   1.12729          0
   1.14687          0
   1.16645          0
   1.18603          0
   1.20562          0
    1.2252          0
   1.24478          0
   1.26436          0
   1.28395          0
   1.30353          0
   1.32311          0
   1.34269          0
   1.36228          0
   1.38186          0
   1.40144          0
   1.42102          0
   1.44061          0
   1.46019          0
   1.47977          0
   1.49935          0
   1.51894          0
   1.53852          0
    1.5581          0
   1.57768          0
   1.59727          0
   1.61685          0
   1.63643          0
   1.65601          0
    1.6756          0
   1.69518          0
   1.71314          0
   1.72902          0
   1.74403          0
   1.75821          0
    1.7716          0
   1.78426          0
   1.79621          0
   1.80751          0
   1.81818          0
   1.82826          0
   1.83779          0
   1.84679          0
   1.85529          0
   1.86332          0
   1.87091          0
   1.87808          0
   1.88485          0
   1.89125          0
   1.89729          0
     1.903          0
    1.9084          0
    1.9135          0
   1.91831          0
   1.92286          0
   1.92716          0
   1.93122          0
   1.93506          0
   1.93868          0
   1.94211          0
   1.94534          0
    1.9484          0
   1.95129          0
   1.95401          0
   1.95659          0
   1.95903          0
   1.96133          0
    1.9635          0
   1.96555          0
   1.96749          0
   1.96933          0
   1.97106          0
   1.97269          0
   1.97424          0
    1.9757          0
   1.97708          0
   1.97838          0
   1.97961          0
   1.98077          0
   1.98187          0
   1.98291          0
   1.98389          0
   1.98482          0
   1.98569          0
   1.98652          0
    1.9873          0
   1.98804          0
   1.98874          0
    1.9894          0
   1.99002          0
   1.99061          0
   1.99116          0
   1.99169          0
   1.99218          0
   1.99265          0
    1.9931          0
   1.99355          0
   1.99399          0
   1.99444          0
   1.99488          0
   1.99533          0
   1.99577          0
   1.99622          0
   1.99666          0
   1.99711          0
   1.99755          0
     1.998          0
   1.99844          0
   1.99889          0
   1.99933          0
   1.99978          0
         2   0.218437
