         0          0
  0.000445 3.0333e-10
  0.001335 6.78688e-09
  0.002225 2.67399e-08
  0.003115 6.03528e-08
  0.004005 1.08708e-07
  0.004895 1.7358e-07
  0.005785 2.53504e-07
  0.006675 3.58568e-07
0.00756867 4.86731e-07
0.00852095 7.1591e-07
0.00958982 1.06347e-06
 0.0107896 1.55354e-06
 0.0121362 2.23357e-06
 0.0136477 3.14233e-06
 0.0153442 4.28471e-06
 0.0172484 5.65257e-06
 0.0193858 7.23872e-06
 0.0217849 9.09003e-06
 0.0244777 1.11134e-05
 0.0275001 1.33206e-05
 0.0308926 1.56308e-05
 0.0347005 1.80674e-05
 0.0389746 2.05064e-05
 0.0437719 2.29151e-05
 0.0491566 2.53774e-05
 0.0552005 2.7607e-05
 0.0619844 2.95882e-05
 0.0695988 3.14708e-05
 0.0781455 3.3228e-05
 0.0877386 3.48473e-05
 0.0985062 3.61608e-05
  0.110592 3.72222e-05
  0.124158 3.86948e-05
  0.139384 4.00046e-05
  0.156474 4.11721e-05
  0.175657 4.23942e-05
  0.197189 4.37128e-05
  0.221357 4.50882e-05
  0.248483 4.58226e-05
  0.278931 4.73173e-05
  0.314615  5.037e-05
   0.35378 4.80359e-05
  0.392945 4.59261e-05
   0.43211 4.40744e-05
  0.471275 4.26001e-05
   0.51044 4.06629e-05
  0.549604 3.81994e-05
  0.588769 3.59586e-05
  0.627934 3.35893e-05
  0.667099 3.22491e-05
  0.706264 3.07067e-05
  0.745429 2.91713e-05
  0.784593 2.75261e-05
  0.823758 2.60201e-05
  0.862923 2.48274e-05
  0.902088 2.36994e-05
  0.941253 2.30257e-05
  0.980418 2.21636e-05
   1.01958 2.21157e-05
   1.05875 2.22464e-05
   1.09791 2.2622e-05
   1.13708 2.34605e-05
   1.17624 2.44399e-05
   1.21541 2.59904e-05
   1.25457 2.78181e-05
   1.29374 2.96497e-05
    1.3329 3.15819e-05
   1.37207 3.3388e-05
   1.41123 3.5407e-05
    1.4504 3.75778e-05
   1.48956 3.96892e-05
   1.52873 4.15692e-05
   1.56789 4.34844e-05
   1.60706 4.54139e-05
   1.64622 4.80737e-05
   1.68539 5.05909e-05
   1.72107 4.78701e-05
   1.75152 4.67575e-05
   1.77865 4.57754e-05
   1.80281 4.45232e-05
   1.82434 4.33549e-05
   1.84353 4.18385e-05
   1.86062 4.03786e-05
   1.87584 3.92376e-05
   1.88941 3.82272e-05
    1.9015 3.67366e-05
   1.91226 3.54736e-05
   1.92186 3.3852e-05
    1.9304 3.21587e-05
   1.93802 3.0229e-05
    1.9448 2.80537e-05
   1.95084 2.57214e-05
   1.95623 2.32404e-05
   1.96103 2.06094e-05
    1.9653 1.82363e-05
   1.96911 1.58505e-05
    1.9725 1.35086e-05
   1.97552 1.12935e-05
   1.97822 9.27789e-06
   1.98061 7.43811e-06
   1.98275 5.8004e-06
   1.98466 4.41368e-06
   1.98635 3.22761e-06
   1.98786 2.30463e-06
   1.98921 1.60179e-06
   1.99041 1.09996e-06
   1.99148 7.47218e-07
   1.99243 5.06441e-07
   1.99333 3.73345e-07
   1.99421 2.65536e-07
    1.9951 1.82203e-07
     1.996 1.15563e-07
   1.99689 6.40049e-08
   1.99777 2.85008e-08
   1.99867 7.30631e-09
   1.99956 3.29262e-10
         2          0
