         0          0
  0.000445 2.93193e-10
  0.001335 6.61001e-09
  0.002225 2.60806e-08
  0.003115 5.90287e-08
  0.004005 1.06713e-07
  0.004895 1.69814e-07
  0.005785 2.51256e-07
  0.006675 3.56656e-07
0.00756867 4.86796e-07
0.00852095 7.20156e-07
0.00958982 1.07148e-06
 0.0107896 1.56253e-06
 0.0121362 2.25199e-06
 0.0136477 3.1524e-06
 0.0153442 4.29729e-06
 0.0172484 5.68145e-06
 0.0193858 7.30824e-06
 0.0217849 9.15457e-06
 0.0244777 1.1201e-05
 0.0275001 1.34111e-05
 0.0308926 1.57515e-05
 0.0347005 1.81777e-05
 0.0389746 2.06417e-05
 0.0437719 2.30928e-05
 0.0491566 2.54755e-05
 0.0552005 2.77378e-05
 0.0619844 2.98393e-05
 0.0695988 3.17611e-05
 0.0781455 3.35017e-05
 0.0877386 3.50687e-05
 0.0985062 3.64829e-05
  0.110592 3.77849e-05
  0.124158 3.90101e-05
  0.139384 4.01993e-05
  0.156474 4.13685e-05
  0.175657 4.25635e-05
  0.197189 4.37327e-05
  0.221357 4.49967e-05
  0.248483 4.60748e-05
  0.278931 4.71637e-05
  0.314615 4.99641e-05
   0.35378 4.76518e-05
  0.392945 4.53719e-05
   0.43211 4.33374e-05
  0.471275 4.12304e-05
   0.51044 3.91628e-05
  0.549604 3.71018e-05
  0.588769 3.51276e-05
  0.627934 3.31893e-05
  0.667099 3.13564e-05
  0.706264 2.96055e-05
  0.745429 2.79418e-05
  0.784593 2.64131e-05
  0.823758 2.50687e-05
  0.862923 2.39438e-05
  0.902088 2.30899e-05
  0.941253 2.25021e-05
  0.980418 2.22182e-05
   1.01958 2.22408e-05
   1.05875 2.26026e-05
   1.09791 2.3255e-05
   1.13708 2.42048e-05
   1.17624 2.53771e-05
   1.21541 2.67928e-05
   1.25457 2.83643e-05
   1.29374 2.99839e-05
    1.3329 3.16955e-05
   1.37207 3.34674e-05
   1.41123 3.5338e-05
    1.4504 3.72307e-05
   1.48956 3.91587e-05
   1.52873 4.11234e-05
   1.56789 4.31895e-05
   1.60706 4.52274e-05
   1.64622 4.74751e-05
   1.68539 4.98199e-05
   1.72107 4.70722e-05
   1.75152 4.59948e-05
   1.77865 4.49053e-05
   1.80281 4.36646e-05
   1.82434 4.25054e-05
   1.84353 4.13201e-05
   1.86062 4.01731e-05
   1.87584 3.89988e-05
   1.88941 3.77931e-05
    1.9015 3.64984e-05
   1.91226 3.50992e-05
   1.92186 3.35453e-05
    1.9304 3.18129e-05
   1.93802 2.98918e-05
    1.9448 2.77877e-05
   1.95084  2.553e-05
   1.95623 2.31501e-05
   1.96103 2.06984e-05
    1.9653 1.82298e-05
   1.96911 1.5801e-05
    1.9725 1.34564e-05
   1.97552 1.12403e-05
   1.97822 9.18741e-06
   1.98061 7.33445e-06
   1.98275 5.70164e-06
   1.98466 4.31271e-06
   1.98635 3.16375e-06
   1.98786 2.25985e-06
   1.98921 1.56774e-06
   1.99041 1.07486e-06
   1.99148 7.22362e-07
   1.99243 4.88111e-07
   1.99333 3.57494e-07
   1.99421 2.51764e-07
    1.9951 1.70084e-07
     1.996 1.06857e-07
   1.99689  5.911e-08
   1.99777 2.61202e-08
   1.99867 6.62109e-09
   1.99956 2.93872e-10
         2          0
