         0 0.00183438
  0.000445 0.00183438
  0.001335 0.00183438
  0.002225 0.00183386
  0.003115  0.0018327
  0.004005 0.00182984
  0.004895 0.00182552
  0.005785  0.0018185
  0.006675 0.00180943
0.00756867 0.00179709
0.00852095 0.00178183
0.00958982 0.00175952
 0.0107896 0.00173129
 0.0121362 0.00169258
 0.0136477 0.00164464
 0.0153442 0.00158224
 0.0172484 0.00150734
 0.0193858 0.00141442
 0.0217849  0.0013073
 0.0244777 0.00118098
 0.0275001 0.00104247
 0.0308926 0.000887877
 0.0347005 0.000728149
 0.0389746 0.000560102
 0.0437719 0.000398292
 0.0491566 0.000238714
 0.0552005 9.81514e-05
 0.0619844 -3.12356e-05
 0.0695988 -0.000132575
 0.0781455 -0.000220526
 0.0877386 -0.00027852
 0.0985062 -0.000328284
  0.110592 -0.000351167
  0.124158 -0.00037441
  0.139384 -0.000372385
  0.156474 -0.000376186
  0.175657 -0.000351657
  0.197189 -0.00033204
  0.221357 -0.000285999
  0.248483 -0.000227283
  0.278931 -0.00018457
  0.314615 -3.50343e-05
   0.35378 -3.70471e-05
  0.392945 6.36354e-05
   0.43211 0.00011479
  0.471275 0.000204965
   0.51044 0.000278824
  0.549604 0.00036799
  0.588769 0.000451228
  0.627934 0.000539751
  0.667099 0.000622549
  0.706264 0.000700248
  0.745429 0.000774972
  0.784593 0.000845648
  0.823758 0.000906859
  0.862923 0.000959268
  0.902088 0.000998317
  0.941253 0.00102643
  0.980418 0.00103839
   1.01958 0.00103897
   1.05875 0.00102273
   1.09791 0.000995332
   1.13708 0.000952653
   1.17624 0.000899917
   1.21541 0.000834274
   1.25457  0.0007626
   1.29374 0.000684662
    1.3329 0.000601344
   1.37207 0.000516664
   1.41123 0.000431821
    1.4504 0.000348233
   1.48956 0.000263596
   1.52873 0.000190426
   1.56789 0.000109256
   1.60706 6.09293e-05
   1.64622 -3.58968e-05
   1.68539 -3.70908e-05
   1.72107 -0.00018968
   1.75152 -0.000232956
   1.77865 -0.000289463
   1.80281 -0.000332163
   1.82434 -0.000347429
   1.84353 -0.000369444
   1.86062 -0.000363976
   1.87584 -0.000366298
   1.88941 -0.000342996
    1.9015 -0.00032149
   1.91226 -0.000272707
   1.92186 -0.000216592
    1.9304 -0.000129858
   1.93802 -2.99699e-05
    1.9448 9.86543e-05
   1.95084 0.000238335
   1.95623 0.000397588
   1.96103 0.000559003
    1.9653 0.000727193
   1.96911 0.000886956
    1.9725 0.00104183
   1.97552 0.00118039
   1.97822 0.00130693
   1.98061 0.00141409
   1.98275 0.00150716
   1.98466 0.00158208
   1.98635 0.00164458
   1.98786 0.00169252
   1.98921 0.00173129
   1.99041  0.0017595
   1.99148 0.00178184
   1.99243 0.00179708
   1.99333 0.00180944
   1.99421 0.00181849
    1.9951 0.00182553
     1.996 0.00182984
   1.99689  0.0018327
   1.99777 0.00183386
   1.99867 0.00183438
   1.99956 0.00183437
         2 0.00183437
