         0 5.47261e-05
  0.000445 5.47261e-05
  0.001335 5.46223e-05
  0.002225 5.46289e-05
  0.003115 5.46662e-05
  0.004005 5.47061e-05
  0.004895 5.48414e-05
  0.005785 5.49267e-05
  0.006675 5.51181e-05
0.00756867 5.52651e-05
0.00852095 5.54797e-05
0.00958982 5.56781e-05
 0.0107896 5.59726e-05
 0.0121362 5.62307e-05
 0.0136477 5.65634e-05
 0.0153442 5.68447e-05
 0.0172484 5.71509e-05
 0.0193858 5.73682e-05
 0.0217849 5.75435e-05
 0.0244777 5.75677e-05
 0.0275001 5.74731e-05
 0.0308926 5.71519e-05
 0.0347005 5.6643e-05
 0.0389746 5.58468e-05
 0.0437719 5.48354e-05
 0.0491566 5.35274e-05
 0.0552005 5.20495e-05
 0.0619844 5.03347e-05
 0.0695988 4.85632e-05
 0.0781455 4.66565e-05
 0.0877386 4.48335e-05
 0.0985062 4.29692e-05
  0.110592 4.13119e-05
  0.124158 3.96499e-05
  0.139384 3.82724e-05
  0.156474 3.68386e-05
  0.175657 3.57419e-05
  0.197189 3.44179e-05
  0.221357 3.35081e-05
  0.248483 3.21977e-05
  0.278931 3.13387e-05
  0.314615 2.99498e-05
   0.35378 2.88255e-05
  0.392945 2.74706e-05
   0.43211 2.63642e-05
  0.471275 2.51659e-05
   0.51044 2.41492e-05
  0.549604 2.31133e-05
  0.588769 2.22242e-05
  0.627934 2.13636e-05
  0.667099 2.06282e-05
  0.706264 1.99333e-05
  0.745429 1.93354e-05
  0.784593 1.8805e-05
  0.823758 1.83599e-05
  0.862923 1.80032e-05
  0.902088 1.77367e-05
  0.941253 1.75584e-05
  0.980418 1.74712e-05
   1.01958 1.74772e-05
   1.05875 1.75722e-05
   1.09791 1.77672e-05
   1.13708 1.8042e-05
   1.17624 1.84167e-05
   1.21541 1.88639e-05
   1.25457 1.94068e-05
   1.29374 2.00056e-05
    1.3329 2.07116e-05
   1.37207 2.14478e-05
   1.41123 2.22882e-05
    1.4504 2.31676e-05
   1.48956 2.41984e-05
   1.52873 2.51833e-05
   1.56789 2.63545e-05
   1.60706 2.7432e-05
   1.64622 2.87612e-05
   1.68539 2.98766e-05
   1.72107 3.13152e-05
   1.75152 3.21758e-05
   1.77865 3.34802e-05
   1.80281 3.4381e-05
   1.82434 3.56833e-05
   1.84353 3.67594e-05
   1.86062 3.81698e-05
   1.87584 3.9521e-05
   1.88941 4.11661e-05
    1.9015 4.28164e-05
   1.91226 4.46832e-05
   1.92186 4.65142e-05
    1.9304 4.84299e-05
   1.93802 5.02089e-05
    1.9448  5.193e-05
   1.95084 5.34128e-05
   1.95623 5.47241e-05
   1.96103 5.57367e-05
    1.9653 5.65331e-05
   1.96911 5.70408e-05
    1.9725 5.73614e-05
   1.97552 5.7455e-05
   1.97822 5.7431e-05
   1.98061 5.72552e-05
   1.98275 5.70384e-05
   1.98466 5.6732e-05
   1.98635 5.64514e-05
   1.98786 5.61187e-05
   1.98921 5.58615e-05
   1.99041 5.55671e-05
   1.99148 5.53693e-05
   1.99243 5.51549e-05
   1.99333 5.50082e-05
   1.99421 5.48171e-05
    1.9951 5.47319e-05
     1.996 5.45968e-05
   1.99689 5.45569e-05
   1.99777 5.45196e-05
   1.99867 5.45129e-05
   1.99956 5.46166e-05
         2 5.46166e-05
