         0          0
  0.000445 -3.79618e-05
  0.001335 -0.000729497
  0.002225 -0.00324145
  0.003115 -0.00850445
  0.004005 -0.0168128
  0.004895 -0.0276293
  0.005785 -0.0397441
  0.006675 -0.0516834
0.00756867 -0.0625492
0.00852095 -0.0699179
0.00958982 -0.0752901
 0.0107896 -0.0769666
 0.0121362 -0.0747173
 0.0136477 -0.0690317
 0.0153442 -0.0610517
 0.0172484 -0.0520694
 0.0193858 -0.0432449
 0.0217849   -0.03528
 0.0244777 -0.0285012
 0.0275001 -0.0228972
 0.0308926 -0.0183343
 0.0347005  -0.014613
 0.0389746 -0.0115797
 0.0437719 -0.00909202
 0.0491566 -0.00705721
 0.0552005  -0.005393
 0.0619844 -0.00404947
 0.0695988 -0.00297881
 0.0781455 -0.00213835
 0.0877386 -0.00147849
 0.0985062 -0.000949282
  0.110592 -0.000537426
  0.124158 -0.000193155
  0.139384 0.000138387
  0.156474 0.000385106
  0.175657 0.00069676
  0.197189 0.000772024
  0.221357 0.00114904
  0.248483 0.00103508
  0.278931 0.00146505
  0.314615 0.00149598
   0.35378 0.00147063
  0.392945 0.00176135
   0.43211 0.00177983
  0.471275 0.00193843
   0.51044 0.00196329
  0.549604 0.00209013
  0.588769 0.00211601
  0.627934 0.00219305
  0.667099 0.00223331
  0.706264 0.00228088
  0.745429 0.00230663
  0.784593 0.00234406
  0.823758 0.00236825
  0.862923 0.00238329
  0.902088 0.00239004
  0.941253 0.00240354
  0.980418 0.00240766
   1.01958 0.00240534
   1.05875 0.00239726
   1.09791  0.0023787
   1.13708 0.00235831
   1.17624 0.00232856
   1.21541 0.00231451
   1.25457 0.00227747
   1.29374 0.00224769
    1.3329 0.00219794
   1.37207 0.00215808
   1.41123 0.00209146
    1.4504 0.00206659
   1.48956  0.0019629
   1.52873 0.00193343
   1.56789 0.00175432
   1.60706 0.00174578
   1.64622 0.00147389
   1.68539 0.00149372
   1.72107 0.00148205
   1.75152  0.0010423
   1.77865 0.00113916
   1.80281 0.000760182
   1.82434 0.000654756
   1.84353 0.000354353
   1.86062 0.000118864
   1.87584 -0.000207347
   1.88941 -0.000549702
    1.9015 -0.000964203
   1.91226 -0.00146784
   1.92186 -0.00211875
    1.9304 -0.00296982
   1.93802 -0.00405668
    1.9448 -0.00541972
   1.95084 -0.00709648
   1.95623 -0.00914344
   1.96103 -0.0116242
    1.9653 -0.0146424
   1.96911  -0.018358
    1.9725  -0.022938
   1.97552 -0.0285807
   1.97822 -0.0354177
   1.98061 -0.0434598
   1.98275 -0.0523791
   1.98466  -0.061469
   1.98635  -0.069562
   1.98786 -0.0753537
   1.98921 -0.0776846
   1.99041  -0.076052
   1.99148 -0.0706784
   1.99243 -0.0632739
   1.99333 -0.0523199
   1.99421 -0.0402617
    1.9951 -0.0280083
     1.996 -0.0170543
   1.99689 -0.00863157
   1.99777 -0.00329153
   1.99867 -0.000741086
   1.99956 -3.85814e-05
         2          0
