         0          0
  0.000445 2.48157e-05
  0.001335 0.000185919
  0.002225 0.000448241
  0.003115 0.000767477
  0.004005 0.00111121
  0.004895 0.00145613
  0.005785 0.00178764
  0.006675 0.00209682
0.00756867 0.00238181
0.00852095 0.00265771
0.00958982 0.00293276
 0.0107896 0.00319983
 0.0121362 0.00345259
 0.0136477 0.00368379
 0.0153442 0.00388767
 0.0172484 0.00405981
 0.0193858 0.00419801
 0.0217849 0.00430221
 0.0244777  0.0043737
 0.0275001 0.00441516
 0.0308926 0.00442982
 0.0347005 0.00442113
 0.0389746 0.00439205
 0.0437719 0.00434521
 0.0491566  0.0042833
 0.0552005 0.00420858
 0.0619844 0.00412387
 0.0695988 0.00403383
 0.0781455 0.00394288
 0.0877386 0.00385309
 0.0985062 0.00376652
  0.110592 0.00368263
  0.124158 0.00360276
  0.139384  0.0035285
  0.156474 0.00345119
  0.175657 0.00338209
  0.197189 0.00330806
  0.221357 0.00325094
  0.248483 0.00313813
  0.278931 0.00310925
  0.314615 0.00287162
   0.35378 0.00281108
  0.392945 0.00263459
   0.43211 0.00247746
  0.471275 0.00229965
   0.51044 0.00212555
  0.549604 0.00195019
  0.588769 0.00178123
  0.627934 0.00161449
  0.667099  0.0014571
  0.706264 0.00130754
  0.745429 0.00117825
  0.784593 0.00105852
  0.823758 0.000957513
  0.862923 0.000880416
  0.902088 0.000818866
  0.941253 0.000779985
  0.980418 0.000762646
   1.01958 0.000766051
   1.05875 0.000790683
   1.09791 0.000834961
   1.13708 0.000900051
   1.17624 0.00098537
   1.21541 0.00108876
   1.25457 0.00120887
   1.29374 0.00134653
    1.3329 0.00148962
   1.37207 0.00163981
   1.41123 0.00179783
    1.4504 0.00196633
   1.48956 0.00214933
   1.52873 0.00231858
   1.56789 0.00247845
   1.60706   0.002616
   1.64622  0.0027938
   1.68539 0.00287652
   1.72107 0.00312955
   1.75152 0.00315962
   1.77865 0.00325868
   1.80281 0.00331376
   1.82434 0.00338875
   1.84353 0.00345148
   1.86062 0.00352532
   1.87584 0.00359964
   1.88941 0.00367916
    1.9015 0.00376403
   1.91226 0.00385369
   1.92186 0.00394609
    1.9304 0.00403807
   1.93802 0.00412802
    1.9448 0.00421292
   1.95084 0.00428875
   1.95623 0.00435173
   1.96103 0.00439876
    1.9653 0.00442724
   1.96911 0.00443486
    1.9725  0.0044192
   1.97552 0.00437712
   1.97822 0.00430583
   1.98061 0.00420238
   1.98275 0.00406514
   1.98466 0.00389387
   1.98635 0.00369066
   1.98786 0.00345985
   1.98921 0.00320724
   1.99041 0.00294013
   1.99148 0.00266488
   1.99243 0.00238867
   1.99333 0.00210326
   1.99421 0.00179351
    1.9951 0.00146126
     1.996 0.00111541
   1.99689 0.000770589
   1.99777 0.000450185
   1.99867 0.000186778
   1.99956 2.49386e-05
         2          0
