         0          0
  0.000445 2.49518e-08
  0.001335 -2.62577e-06
  0.002225 -1.26248e-05
  0.003115 -3.60519e-05
  0.004005 -7.51602e-05
  0.004895 -0.000134518
  0.005785 -0.000210317
  0.006675 -0.000305205
0.00756867 -0.000408302
0.00852095 -0.000522252
0.00958982 -0.000664693
 0.0107896 -0.000812031
 0.0121362 -0.00097399
 0.0136477 -0.00112893
 0.0153442 -0.00128129
 0.0172484 -0.00141563
 0.0193858 -0.0015368
 0.0217849 -0.00163731
 0.0244777 -0.00172307
 0.0275001 -0.00179168
 0.0308926 -0.00184818
 0.0347005 -0.00189201
 0.0389746 -0.00192655
 0.0437719 -0.00195185
 0.0491566 -0.00196997
 0.0552005 -0.0019811
 0.0619844 -0.00198636
 0.0695988 -0.00198597
 0.0781455 -0.00198057
 0.0877386 -0.00197053
 0.0985062 -0.00195608
  0.110592 -0.00193695
  0.124158 -0.00191435
  0.139384 -0.00188672
  0.156474 -0.00185456
  0.175657 -0.00181828
  0.197189 -0.00177261
  0.221357 -0.00173299
  0.248483 -0.00166354
  0.278931 -0.0016327
  0.314615 -0.00152767
   0.35378 -0.00146117
  0.392945 -0.00135124
   0.43211 -0.00127891
  0.471275 -0.00117814
   0.51044 -0.00109853
  0.549604 -0.00100339
  0.588769 -0.000917701
  0.627934 -0.000826882
  0.667099 -0.000738795
  0.706264 -0.000649463
  0.745429 -0.000561193
  0.784593 -0.000472407
  0.823758 -0.000384069
  0.862923 -0.000295461
  0.902088 -0.000207419
  0.941253 -0.000119848
  0.980418 -3.1383e-05
   1.01958 5.62362e-05
   1.05875 0.000144382
   1.09791 0.000231476
   1.13708 0.000319279
   1.17624 0.000406311
   1.21541 0.000493244
   1.25457 0.000581575
   1.29374 0.000667884
    1.3329 0.00075681
   1.37207  0.0008433
   1.41123 0.000933575
    1.4504 0.00101724
   1.48956 0.00111161
   1.52873 0.00119245
   1.56789  0.0012915
   1.60706 0.00136322
   1.64622 0.00147236
   1.68539 0.00153827
   1.72107 0.00164379
   1.75152 0.00167494
   1.77865 0.00174362
   1.80281 0.00178392
   1.82434 0.00182867
   1.84353  0.0018638
   1.86062 0.00189584
   1.87584 0.00192301
   1.88941 0.00194582
    1.9015 0.00196445
   1.91226 0.00197878
   1.92186 0.00198922
    1.9304 0.00199469
   1.93802 0.00199524
    1.9448 0.00198991
   1.95084 0.00197873
   1.95623 0.00196047
   1.96103  0.0019351
    1.9653 0.00190066
   1.96911 0.00185709
    1.9725 0.00180092
   1.97552 0.00173255
   1.97822  0.0016469
   1.98061 0.00154635
   1.98275 0.00142494
   1.98466 0.00129019
   1.98635 0.00113719
   1.98786 0.000981512
   1.98921 0.00081863
   1.99041 0.000670369
   1.99148 0.000526919
   1.99243 0.00041211
   1.99333 0.000308163
   1.99421 0.000212436
    1.9951 0.000135922
     1.996 7.59734e-05
   1.99689 3.64528e-05
   1.99777 1.27704e-05
   1.99867 2.65626e-06
   1.99956 -2.5084e-08
         2          0
