         0          0
  0.000445 5.99225e-10
  0.001335 7.1579e-08
  0.002225 5.54811e-07
  0.003115 1.90819e-06
  0.004005 4.62875e-06
  0.004895 9.26628e-06
  0.005785 1.59317e-05
  0.006675 2.54607e-05
0.00756867 3.69697e-05
0.00852095 5.16815e-05
0.00958982 7.36688e-05
 0.0107896 0.000101299
 0.0121362 0.000139256
 0.0136477 0.000186809
 0.0153442 0.000248247
 0.0172484 0.000323323
 0.0193858 0.000415272
 0.0217849 0.000523325
 0.0244777 0.000648721
 0.0275001 0.000789064
 0.0308926 0.000942848
 0.0347005 0.00110553
 0.0389746 0.00127299
 0.0437719 0.00143909
 0.0491566 0.00159829
 0.0552005 0.00174468
 0.0619844 0.00187383
 0.0695988 0.00198272
 0.0781455 0.00207042
 0.0877386 0.00213806
 0.0985062 0.00218777
  0.110592 0.00222314
  0.124158 0.00224655
  0.139384  0.0022611
  0.156474 0.00226708
  0.175657 0.00226612
  0.197189 0.00225128
  0.221357 0.00223596
  0.248483 0.00218557
  0.278931 0.00217595
  0.314615 0.00206379
   0.35378 0.00205371
  0.392945 0.00193387
   0.43211 0.00187156
  0.471275 0.00176313
   0.51044 0.00167446
  0.549604 0.00157304
  0.588769 0.00147676
  0.627934 0.00137775
  0.667099 0.00128416
  0.706264 0.00120033
  0.745429  0.0011182
  0.784593 0.00104081
  0.823758  0.0009733
  0.862923 0.000917461
  0.902088 0.000875146
  0.941253 0.000846355
  0.980418 0.000833019
   1.01958 0.000834864
   1.05875 0.000850136
   1.09791  0.0008809
   1.13708 0.000924957
   1.17624 0.00098376
   1.21541 0.00105553
   1.25457 0.00113532
   1.29374 0.00121928
    1.3329 0.00131176
   1.37207 0.00140295
   1.41123 0.00149974
    1.4504 0.00159494
   1.48956  0.0016955
   1.52873 0.00177895
   1.56789 0.00187697
   1.60706 0.00193379
   1.64622 0.00205041
   1.68539 0.00206349
   1.72107 0.00218265
   1.75152 0.00219348
   1.77865 0.00224374
   1.80281 0.00225408
   1.82434 0.00226682
   1.84353 0.00226618
   1.86062  0.0022605
   1.87584 0.00224637
   1.88941 0.00222378
    1.9015 0.00218984
   1.91226 0.00214188
   1.92186 0.00207609
    1.9304 0.00198971
   1.93802 0.00188172
    1.9448 0.00175306
   1.95084 0.00160684
   1.95623 0.00144749
   1.96103 0.00128092
    1.9653  0.0011127
   1.96911 0.000949062
    1.9725 0.000794297
   1.97552 0.000653041
   1.97822 0.000526815
   1.98061 0.000418041
   1.98275 0.000325478
   1.98466  0.0002499
   1.98635 0.000188055
   1.98786 0.000140186
   1.98921 0.000101978
   1.99041 7.41652e-05
   1.99148 5.20315e-05
   1.99243 3.72217e-05
   1.99333 2.56352e-05
   1.99421 1.60412e-05
    1.9951 9.33029e-06
     1.996 4.66076e-06
   1.99689 1.92144e-06
   1.99777 5.58654e-07
   1.99867 7.20782e-08
   1.99956 6.0339e-10
         2          0
