         0          0
  0.000445 0.000476786
  0.001335 0.00428138
  0.002225   0.011848
  0.003115  0.0230524
  0.004005  0.0376395
  0.004895  0.0552018
  0.005785  0.0751966
  0.006675  0.0969933
0.00756867   0.120039
0.00852095   0.145207
0.00958982   0.173401
 0.0107896   0.204157
 0.0121362   0.236801
 0.0136477   0.270535
 0.0153442   0.304561
 0.0172484   0.338179
 0.0193858   0.370862
 0.0217849   0.402264
 0.0244777   0.432194
 0.0275001    0.46058
 0.0308926   0.487433
 0.0347005   0.512813
 0.0389746   0.536825
 0.0437719   0.559596
 0.0491566   0.581285
 0.0552005   0.602075
 0.0619844   0.622171
 0.0695988   0.641767
 0.0781455   0.661084
 0.0877386   0.680355
 0.0985062   0.699841
  0.110592   0.719751
  0.124158    0.74022
  0.139384    0.76138
  0.156474    0.78347
  0.175657   0.806448
  0.197189   0.830965
  0.221357   0.856081
  0.248483   0.884679
  0.278931   0.912228
  0.314615   0.946441
   0.35378   0.982374
  0.392945    1.01334
   0.43211    1.04391
  0.471275     1.0713
   0.51044    1.09775
  0.549604    1.12159
  0.588769    1.14465
  0.627934    1.16564
  0.667099     1.1854
  0.706264    1.20344
  0.745429    1.21967
  0.784593    1.23371
  0.823758    1.24569
  0.862923    1.25548
  0.902088    1.26299
  0.941253    1.26799
  0.980418    1.27062
   1.01958    1.27079
   1.05875     1.2685
   1.09791    1.26369
   1.13708    1.25618
   1.17624    1.24615
   1.21541    1.23362
   1.25457     1.2193
   1.29374    1.20315
    1.3329     1.1856
   1.37207    1.16627
   1.41123    1.14532
    1.4504    1.12244
   1.48956    1.09872
   1.52873    1.07271
   1.56789    1.04569
   1.60706    1.01541
   1.64622   0.984974
   1.68539   0.949993
   1.72107   0.916047
   1.75152   0.888488
   1.77865   0.860015
   1.80281   0.834817
   1.82434   0.810249
   1.84353   0.787299
   1.86062   0.765138
   1.87584   0.743884
   1.88941   0.723235
    1.9015   0.703156
   1.91226    0.68349
   1.92186   0.664023
    1.9304   0.644562
   1.93802    0.62489
    1.9448   0.604757
   1.95084   0.583927
   1.95623   0.562191
   1.96103   0.539367
    1.9653   0.515296
   1.96911   0.489856
    1.9725   0.462948
   1.97552   0.434508
   1.97822   0.404517
   1.98061   0.373041
   1.98275   0.340263
   1.98466   0.306528
   1.98635   0.272366
   1.98786   0.238474
   1.98921   0.205658
   1.99041   0.174722
   1.99148   0.146348
   1.99243   0.121007
   1.99333  0.0977939
   1.99421  0.0758302
    1.9951  0.0556749
     1.996  0.0379663
   1.99689  0.0232544
   1.99777  0.0119523
   1.99867 0.00431916
   1.99956 0.000480992
         2          0
