         0          0
  0.000445 4.39716e-07
  0.001335 3.99663e-06
  0.002225 1.11657e-05
  0.003115 2.19042e-05
  0.004005 3.59797e-05
  0.004895 5.30398e-05
  0.005785 7.24689e-05
  0.006675 9.36564e-05
0.00756867 0.000116141
0.00852095 0.000140842
0.00958982 0.000168761
 0.0107896 0.000199543
 0.0121362 0.000233046
 0.0136477 0.000269157
 0.0153442 0.000307273
 0.0172484 0.000347528
 0.0193858 0.000389325
 0.0217849 0.000431858
 0.0244777 0.000473129
 0.0275001  0.0005099
 0.0308926 0.000545732
 0.0347005 0.000576757
 0.0389746 0.000602912
 0.0437719 0.000622546
 0.0491566 0.000636132
 0.0552005 0.00063894
 0.0619844 0.000637918
 0.0695988 0.000640063
 0.0781455 0.000648532
 0.0877386 0.000673051
 0.0985062 0.000706159
  0.110592 0.000739456
  0.124158 0.000772698
  0.139384 0.000820604
  0.156474 0.000856948
  0.175657 0.000898102
  0.197189 0.000886685
  0.221357 0.000882061
  0.248483 0.000940667
  0.278931 0.00113756
  0.314615 0.00128633
   0.35378 0.00149348
  0.392945 0.00185383
   0.43211 0.00205568
  0.471275 0.00212849
   0.51044 0.00197219
  0.549604 0.00186957
  0.588769 0.00181567
  0.627934 0.00173573
  0.667099  0.0017638
  0.706264 0.00191346
  0.745429 0.00197583
  0.784593 0.00205265
  0.823758 0.00212303
  0.862923 0.00222971
  0.902088   0.002299
  0.941253 0.00232818
  0.980418 0.00236847
   1.01958 0.00233471
   1.05875 0.00225903
   1.09791 0.00217833
   1.13708 0.00217947
   1.17624 0.00209544
   1.21541 0.00203705
   1.25457 0.00198023
   1.29374 0.00193481
    1.3329 0.00192766
   1.37207 0.00186149
   1.41123 0.00192342
    1.4504 0.00187322
   1.48956 0.00187509
   1.52873 0.00205367
   1.56789 0.00197595
   1.60706  0.0017752
   1.64622 0.00155138
   1.68539  0.0013381
   1.72107  0.0011173
   1.75152 0.000997832
   1.77865 0.000906008
   1.80281 0.000887765
   1.82434 0.000901376
   1.84353 0.000859759
   1.86062 0.00079658
   1.87584 0.00071591
   1.88941 0.000647373
    1.9015 0.000596847
   1.91226 0.000554702
   1.92186 0.000527955
    1.9304 0.000503965
   1.93802 0.000479018
    1.9448 0.000450138
   1.95084 0.000424181
   1.95623 0.000401458
   1.96103 0.000376579
    1.9653 0.00035835
   1.96911 0.000339376
    1.9725 0.000317935
   1.97552 0.000295002
   1.97822 0.000272435
   1.98061 0.000249556
   1.98275 0.000227321
   1.98466 0.000205447
   1.98635 0.000183106
   1.98786 0.000160464
   1.98921 0.000138129
   1.99041 0.000116829
   1.99148 9.73127e-05
   1.99243 7.99244e-05
   1.99333 6.40772e-05
   1.99421 4.92074e-05
    1.9951 3.57176e-05
     1.996 2.40384e-05
   1.99689 1.45052e-05
   1.99777 7.33443e-06
   1.99867 2.60426e-06
   1.99956 2.83992e-07
         2          0
