         0          0
  0.000445 2.09886e-05
  0.001335 6.27467e-05
  0.002225 0.000104184
  0.003115 0.000145048
  0.004005 0.000184859
  0.004895 0.000223562
  0.005785 0.000260587
  0.006675 0.000295926
0.00756867 0.000329869
0.00852095 0.000364353
0.00958982 0.000400837
 0.0107896 0.000438723
 0.0121362 0.000478128
 0.0136477 0.000519236
 0.0153442 0.000561128
 0.0172484 0.000604243
 0.0193858 0.000647524
 0.0217849 0.000689781
 0.0244777 0.000728186
 0.0275001 0.00075805
 0.0308926 0.000785856
 0.0347005 0.00080707
 0.0389746 0.000822286
 0.0437719 0.000829622
 0.0491566 0.000830305
 0.0552005 0.000818353
 0.0619844  0.0008028
 0.0695988 0.000793225
 0.0781455 0.000792994
 0.0877386 0.000812226
 0.0985062 0.000841951
  0.110592 0.000871176
  0.124158 0.000899729
  0.139384 0.000941375
  0.156474 0.000966304
  0.175657 0.000993505
  0.197189 0.000966435
  0.221357 0.000950024
  0.248483 0.000998296
  0.278931 0.00119706
  0.314615 0.00132783
   0.35378  0.0015058
  0.392945 0.00182967
   0.43211  0.0019908
  0.471275 0.00203962
   0.51044 0.00187162
  0.549604 0.00176396
  0.588769 0.00170378
  0.627934 0.00161728
  0.667099  0.0016315
  0.706264 0.00175355
  0.745429 0.00179281
  0.784593 0.00184753
  0.823758 0.00190104
  0.862923 0.00198551
  0.902088 0.00203844
  0.941253 0.00205786
  0.980418 0.00209024
   1.01958 0.00206235
   1.05875 0.00200086
   1.09791  0.0019318
   1.13708 0.00193476
   1.17624 0.00186099
   1.21541 0.00181571
   1.25457 0.00177688
   1.29374 0.00174539
    1.3329 0.00175616
   1.37207  0.0017162
   1.41123 0.00179599
    1.4504  0.0017664
   1.48956 0.00178249
   1.52873 0.00197182
   1.56789 0.00192287
   1.60706 0.00175354
   1.64622 0.00156554
   1.68539 0.00138141
   1.72107 0.00118181
   1.75152 0.00108034
   1.77865 0.000998068
   1.80281 0.000988121
   1.82434 0.00101708
   1.84353 0.000988354
   1.86062 0.000932885
   1.87584 0.000850724
   1.88941 0.000780785
    1.9015 0.000730162
   1.91226 0.000685965
   1.92186 0.000661491
    1.9304 0.000641495
   1.93802 0.000620792
    1.9448 0.000593322
   1.95084 0.000567985
   1.95623 0.000545694
   1.96103 0.000519811
    1.9653 0.000503962
   1.96911 0.000488242
    1.9725 0.000469882
   1.97552 0.00044935
   1.97822 0.000428835
   1.98061 0.000407233
   1.98275 0.000386377
   1.98466 0.000365929
   1.98635 0.000344197
   1.98786 0.000320896
   1.98921 0.000296414
   1.99041 0.000271371
   1.99148 0.000246765
   1.99243 0.000222995
   1.99333 0.000199278
   1.99421 0.000174437
    1.9951 0.000148595
     1.996 0.000122006
   1.99689 9.49237e-05
   1.99777 6.76399e-05
   1.99867 4.03889e-05
   1.99956 1.33553e-05
         2          0
