         0          0
  0.000445  0.0201197
  0.001335  0.0603062
  0.002225   0.100342
  0.003115   0.140034
  0.004005   0.179108
  0.004895   0.217238
  0.005785   0.254081
  0.006675   0.289321
0.00756867   0.322838
0.00852095   0.356325
0.00958982   0.390987
 0.0107896   0.426203
 0.0121362   0.461285
 0.0136477   0.495567
 0.0153442   0.528477
 0.0172484   0.559599
 0.0193858    0.58869
 0.0217849   0.615658
 0.0244777   0.640533
 0.0275001   0.663416
 0.0308926   0.684454
 0.0347005   0.703813
 0.0389746   0.721669
 0.0437719   0.738199
 0.0491566   0.753583
 0.0552005   0.768002
 0.0619844   0.781636
 0.0695988   0.794645
 0.0781455     0.8072
 0.0877386    0.81947
 0.0985062   0.831628
  0.110592   0.843813
  0.124158   0.856111
  0.139384   0.868598
  0.156474   0.881413
  0.175657   0.894513
  0.197189   0.908268
  0.221357    0.92212
  0.248483   0.937651
  0.278931   0.952318
  0.314615   0.970326
   0.35378   0.988776
  0.392945    1.00447
   0.43211    1.01971
  0.471275    1.03321
   0.51044    1.04606
  0.549604    1.05753
  0.588769     1.0685
  0.627934     1.0784
  0.667099    1.08764
  0.706264    1.09602
  0.745429    1.10349
  0.784593    1.10993
  0.823758     1.1154
  0.862923    1.11985
  0.902088    1.12325
  0.941253    1.12551
  0.980418     1.1267
   1.01958    1.12677
   1.05875    1.12573
   1.09791    1.12355
   1.13708    1.12014
   1.17624    1.11558
   1.21541    1.10987
   1.25457     1.1033
   1.29374    1.09585
    1.3329    1.08771
   1.37207    1.07867
   1.41123    1.06878
    1.4504     1.0579
   1.48956    1.04649
   1.52873    1.03386
   1.56789    1.02056
   1.60706    1.00547
   1.64622   0.990057
   1.68539   0.972118
   1.72107   0.954271
   1.75152   0.939627
   1.77865   0.924201
   1.80281   0.910337
   1.82434   0.896582
   1.84353   0.883524
   1.86062   0.870703
   1.87584   0.858198
   1.88941   0.845833
    1.9015   0.833587
   1.91226   0.821356
   1.92186   0.809002
    1.9304    0.79639
   1.93802   0.783366
    1.9448   0.769744
   1.95084   0.755332
   1.95623   0.739948
   1.96103   0.723414
    1.9653   0.705548
   1.96911   0.686181
    1.9725   0.665142
   1.97552   0.642265
   1.97822   0.617399
   1.98061   0.590434
   1.98275   0.561338
   1.98466   0.530197
   1.98635   0.497253
   1.98786   0.462921
   1.98921    0.42777
   1.99041   0.392472
   1.99148   0.357715
   1.99243   0.324126
   1.99333   0.290499
   1.99421   0.255132
    1.9951   0.218149
     1.996   0.179867
   1.99689   0.140631
   1.99777   0.100771
   1.99867  0.0605647
   1.99956  0.0202059
         2          0
