         0          0
  0.000445 7.15108e-05
  0.001335 0.000640314
  0.002225  0.0017678
  0.003115 0.00342006
  0.004005 0.00552214
  0.004895 0.00795399
  0.005785  0.0105632
  0.006675  0.0131878
0.00756867  0.0156927
0.00852095  0.0180939
0.00958982  0.0203598
 0.0107896  0.0223146
 0.0121362  0.0238024
 0.0136477   0.024719
 0.0153442  0.0250331
 0.0172484  0.0247839
 0.0193858  0.0240635
 0.0217849  0.0229885
 0.0244777  0.0216768
 0.0275001  0.0202313
 0.0308926   0.018734
 0.0347005  0.0172455
 0.0389746  0.0158087
 0.0437719  0.0144526
 0.0491566   0.013196
 0.0552005  0.0120505
 0.0619844  0.0110232
 0.0695988  0.0101171
 0.0781455 0.00932681
 0.0877386 0.00864418
 0.0985062 0.00806049
  0.110592 0.00756012
  0.124158 0.00712828
  0.139384 0.00675633
  0.156474 0.00642536
  0.175657  0.0061374
  0.197189  0.0058593
  0.221357 0.00562505
  0.248483 0.00534409
  0.278931 0.00517252
  0.314615  0.0047653
   0.35378 0.00455465
  0.392945 0.00424575
   0.43211 0.00397293
  0.471275 0.00367974
   0.51044 0.00341731
  0.549604 0.00314235
  0.588769 0.00287888
  0.627934 0.00261816
  0.667099 0.00237246
  0.706264 0.00214052
  0.745429 0.00192381
  0.784593 0.00171823
  0.823758 0.00153353
  0.862923 0.00137935
  0.902088 0.00125642
  0.941253 0.00116925
  0.980418 0.00112551
   1.01958 0.00112839
   1.05875 0.00117273
   1.09791  0.0012589
   1.13708 0.00138536
   1.17624 0.00154279
   1.21541  0.0017248
   1.25457 0.00192982
   1.29374 0.00214935
    1.3329 0.00237943
   1.37207  0.0026278
   1.41123 0.00288672
    1.4504 0.00314841
   1.48956   0.003419
   1.52873 0.00368725
   1.56789 0.00397504
   1.60706 0.00425175
   1.64622 0.00457626
   1.68539 0.00479617
   1.72107  0.0052302
   1.75152 0.00540437
   1.77865  0.0056831
   1.80281 0.00591498
   1.82434  0.0061958
   1.84353 0.00648658
   1.86062 0.00681721
   1.87584 0.00718437
   1.88941 0.00760645
    1.9015 0.00809712
   1.91226 0.00867277
   1.92186 0.00934545
    1.9304   0.010127
   1.93802  0.0110254
    1.9448  0.0120461
   1.95084  0.0131889
   1.95623  0.0144472
   1.96103  0.0158086
    1.9653  0.0172538
   1.96911  0.0187526
    1.9725  0.0202604
   1.97552  0.0217155
   1.97822  0.0230357
   1.98061  0.0241183
   1.98275  0.0248453
   1.98466  0.0250998
   1.98635   0.024789
   1.98786  0.0238732
   1.98921  0.0223834
   1.99041  0.0204242
   1.99148   0.018152
   1.99243  0.0157436
   1.99333  0.0132309
   1.99421  0.0105978
    1.9951 0.00798009
     1.996  0.0055403
   1.99689 0.00343133
   1.99777 0.00177363
   1.99867 0.000642426
   1.99956 7.17455e-05
         2          0
