         0          0
  0.000445 2.4826e-05
  0.001335 0.000185952
  0.002225 0.000448235
  0.003115 0.000767318
  0.004005 0.00111076
  0.004895 0.00145525
  0.005785 0.00178619
  0.006675 0.00209471
0.00756867 0.00237896
0.00852095 0.00265404
0.00958982 0.00292816
 0.0107896 0.00319422
 0.0121362 0.00344595
 0.0136477 0.00367614
 0.0153442 0.00387903
 0.0172484 0.00405025
 0.0193858 0.00418755
 0.0217849 0.00429091
 0.0244777 0.00436176
 0.0275001 0.00440301
 0.0308926  0.0044178
 0.0347005 0.00440955
 0.0389746 0.00438099
 0.0437719  0.0043349
 0.0491566 0.00427399
 0.0552005 0.00420088
 0.0619844 0.00411846
 0.0695988 0.00403057
 0.0781455 0.00394114
 0.0877386 0.00385254
 0.0985062 0.00376753
  0.110592 0.00368707
  0.124158 0.00361187
  0.139384 0.00354296
  0.156474 0.00347133
  0.175657 0.00340611
  0.197189 0.00333067
  0.221357 0.00327133
  0.248483 0.00315949
  0.278931 0.00312594
  0.314615 0.00288219
   0.35378 0.00281452
  0.392945 0.00263035
   0.43211 0.00247238
  0.471275 0.00229485
   0.51044 0.00212223
  0.549604 0.00195072
  0.588769 0.00178161
  0.627934 0.00161519
  0.667099 0.00145661
  0.706264  0.0013057
  0.745429 0.00117806
  0.784593 0.00106448
  0.823758 0.000966207
  0.862923 0.000884256
  0.902088 0.00081861
  0.941253 0.000776426
  0.980418 0.000756075
   1.01958 0.000758044
   1.05875 0.000782422
   1.09791 0.000826428
   1.13708 0.000893213
   1.17624 0.00097642
   1.21541 0.00107618
   1.25457 0.00119254
   1.29374 0.00132973
    1.3329 0.00147544
   1.37207 0.00162625
   1.41123 0.00178306
    1.4504 0.00194915
   1.48956 0.00212964
   1.52873 0.00230387
   1.56789 0.00247435
   1.60706 0.00262731
   1.64622  0.0028002
   1.68539 0.00287267
   1.72107 0.00311984
   1.75152    0.00315
   1.77865  0.0032535
   1.80281  0.0033075
   1.82434 0.00337893
   1.84353 0.00344022
   1.86062 0.00351268
   1.87584 0.00358521
   1.88941 0.00366415
    1.9015 0.00374812
   1.91226 0.00383682
   1.92186 0.00392881
    1.9304 0.00402058
   1.93802 0.00410985
    1.9448  0.0041931
   1.95084  0.0042672
   1.95623 0.00432899
   1.96103 0.00437519
    1.9653 0.00440323
   1.96911 0.00441062
    1.9725 0.00439467
   1.97552 0.00435231
   1.97822 0.00428087
   1.98061 0.00417751
   1.98275 0.00404062
   1.98466 0.00386999
   1.98635 0.00366772
   1.98786 0.00343814
   1.98921 0.00318699
   1.99041 0.00292151
   1.99148 0.00264798
   1.99243 0.00237351
   1.99333 0.00208992
   1.99421 0.00178213
    1.9951 0.00145198
     1.996 0.00110833
   1.99689 0.000765688
   1.99777 0.00044732
   1.99867 0.00018559
   1.99956 2.47808e-05
         2          0
