         0          0
  0.000445 6.00923e-10
  0.001335 7.16234e-08
  0.002225 5.55332e-07
  0.003115 1.90942e-06
  0.004005 4.63158e-06
  0.004895 9.27064e-06
  0.005785 1.59378e-05
  0.006675 2.5468e-05
0.00756867 3.69763e-05
0.00852095 5.16875e-05
0.00958982 7.36682e-05
 0.0107896 0.000101291
 0.0121362 0.000139229
 0.0136477 0.000186763
 0.0153442 0.000248168
 0.0172484 0.000323215
 0.0193858 0.000415124
 0.0217849 0.000523147
 0.0244777 0.000648505
 0.0275001 0.000788807
 0.0308926 0.000942533
 0.0347005 0.00110515
 0.0389746 0.00127253
 0.0437719  0.0014386
 0.0491566 0.00159784
 0.0552005 0.00174435
 0.0619844 0.00187366
 0.0695988 0.00198273
 0.0781455 0.00207056
 0.0877386 0.00213816
 0.0985062 0.00218754
  0.110592 0.00222245
  0.124158 0.00224536
  0.139384 0.00225938
  0.156474 0.00226411
  0.175657 0.00226242
  0.197189 0.00224734
  0.221357 0.00223325
  0.248483 0.00218338
  0.278931 0.00217413
  0.314615  0.0020634
   0.35378 0.00205383
  0.392945 0.00193478
   0.43211 0.00187245
  0.471275 0.00176516
   0.51044 0.00167771
  0.549604 0.00157433
  0.588769  0.0014782
  0.627934 0.00137832
  0.667099 0.00128482
  0.706264 0.00119832
  0.745429 0.00111532
  0.784593 0.00103761
  0.823758 0.000970401
  0.862923 0.000913699
  0.902088 0.000870521
  0.941253 0.000841013
  0.980418 0.000826823
   1.01958 0.000827648
   1.05875 0.000843588
   1.09791 0.000874846
   1.13708 0.000919872
   1.17624 0.000978624
   1.21541 0.00104938
   1.25457 0.00112946
   1.29374 0.00121427
    1.3329 0.00130844
   1.37207 0.00140166
   1.41123 0.00149948
    1.4504 0.00159371
   1.48956 0.00169419
   1.52873 0.00177923
   1.56789 0.00187827
   1.60706 0.00193615
   1.64622 0.00205247
   1.68539 0.00206512
   1.72107  0.0021803
   1.75152 0.00218926
   1.77865 0.00223766
   1.80281 0.00224766
   1.82434 0.00225955
   1.84353 0.00225821
   1.86062 0.00225224
   1.87584 0.00223793
   1.88941 0.00221535
    1.9015 0.00218136
   1.91226 0.00213322
   1.92186 0.00206711
    1.9304 0.00198064
   1.93802 0.00187269
    1.9448 0.00174425
   1.95084 0.00159837
   1.95623 0.00143956
   1.96103  0.0012737
    1.9653 0.00110629
   1.96911 0.000943508
    1.9725  0.0007896
   1.97552 0.000649137
   1.97822 0.000523635
   1.98061 0.000415486
   1.98275 0.000323468
   1.98466 0.000248337
   1.98635 0.000186869
   1.98786 0.000139294
   1.98921 0.000101328
   1.99041 7.36895e-05
   1.99148 5.16987e-05
   1.99243 3.69832e-05
   1.99333 2.54717e-05
   1.99421 1.59393e-05
    1.9951 9.27134e-06
     1.996 4.63169e-06
   1.99689 1.90945e-06
   1.99777 5.55296e-07
   1.99867 7.1623e-08
   1.99956 6.00873e-10
         2          0
