         0          0
  0.000445 2.66814e-08
  0.001335 -2.62146e-06
  0.002225 -1.25724e-05
  0.003115 -3.59473e-05
  0.004005 -7.49013e-05
  0.004895 -0.0001341
  0.005785 -0.000209576
  0.006675 -0.000304145
0.00756867 -0.00040672
0.00852095 -0.000520187
0.00958982 -0.000661797
 0.0107896 -0.000808348
 0.0121362 -0.000969201
 0.0136477 -0.00112314
 0.0153442 -0.00127429
 0.0172484 -0.00140762
 0.0193858 -0.00152771
 0.0217849 -0.00162737
 0.0244777 -0.00171226
 0.0275001 -0.0017802
 0.0308926 -0.00183601
 0.0347005 -0.00187932
 0.0389746 -0.0019133
 0.0437719 -0.00193807
 0.0491566 -0.00195559
 0.0552005 -0.0019661
 0.0619844 -0.00197062
 0.0695988 -0.00196939
 0.0781455 -0.00196316
 0.0877386 -0.00195218
 0.0985062 -0.00193686
  0.110592 -0.00191694
  0.124158 -0.0018934
  0.139384 -0.00186527
  0.156474 -0.00183238
  0.175657 -0.00179651
  0.197189 -0.00175108
  0.221357 -0.00171175
  0.248483 -0.00164391
  0.278931 -0.00161388
  0.314615 -0.00151115
   0.35378 -0.00144701
  0.392945  -0.001339
   0.43211 -0.00126893
  0.471275 -0.00117067
   0.51044 -0.00109231
  0.549604 -0.000999046
  0.588769 -0.000914944
  0.627934 -0.00082499
  0.667099 -0.000737707
  0.706264 -0.000649505
  0.745429 -0.000561627
  0.784593 -0.000474333
  0.823758 -0.000386463
  0.862923 -0.000298776
  0.902088 -0.000211132
  0.941253 -0.000123733
  0.980418 -3.55931e-05
   1.01958 5.1754e-05
   1.05875 0.000139358
   1.09791 0.000226108
   1.13708 0.00031292
   1.17624 0.000399551
   1.21541 0.000485757
   1.25457 0.00057294
   1.29374 0.000658236
    1.3329 0.000745672
   1.37207 0.000831561
   1.41123 0.000920536
    1.4504  0.0010043
   1.48956 0.00109643
   1.52873 0.00117672
   1.56789 0.00127356
   1.60706 0.00134351
   1.64622 0.00145084
   1.68539 0.00151547
   1.72107 0.00162071
   1.75152 0.00165095
   1.77865 0.00172018
   1.80281 0.00175968
   1.82434 0.00180485
   1.84353 0.00184001
   1.86062 0.00187248
   1.87584 0.00190009
   1.88941 0.00192356
    1.9015 0.00194286
   1.91226   0.001958
   1.92186 0.00196885
    1.9304 0.00197471
   1.93802 0.00197548
    1.9448 0.00197045
   1.95084 0.00195949
   1.95623 0.00194152
   1.96103 0.00191643
    1.9653 0.00188237
   1.96911 0.00183917
    1.9725 0.00178355
   1.97552 0.00171577
   1.97822 0.00163096
   1.98061 0.00153129
   1.98275 0.00141108
   1.98466 0.00127753
   1.98635 0.00112605
   1.98786 0.000971762
   1.98921 0.000810499
   1.99041 0.000663572
   1.99148 0.000521584
   1.99243 0.000407822
   1.99333 0.000304972
   1.99421 0.000210151
    1.9951 0.000134474
     1.996 7.51147e-05
   1.99689 3.60538e-05
   1.99777 1.26108e-05
   1.99867 2.63017e-06
   1.99956 -2.68359e-08
         2          0
