         0    125.628
  0.000445    109.461
  0.001335     83.574
  0.002225    64.1052
  0.003115      49.91
  0.004005     40.583
  0.004895    35.5469
  0.005785    33.8701
  0.006675    34.4412
0.00756867    36.0755
0.00852095    37.8862
0.00958982    39.5195
 0.0107896     40.474
 0.0121362    40.5772
 0.0136477    39.8187
 0.0153442    38.3234
 0.0172484    36.2521
 0.0193858    33.7947
 0.0217849    31.1147
 0.0244777    28.3534
 0.0275001    25.6094
 0.0308926    22.9489
 0.0347005    20.4206
 0.0389746    18.0596
 0.0437719    15.8867
 0.0491566    13.9102
 0.0552005    12.1319
 0.0619844    10.5511
 0.0695988    9.15524
 0.0781455    7.93942
 0.0877386     6.8895
 0.0985062    5.98787
  0.110592     5.2204
  0.124158    4.56409
  0.139384    3.99876
  0.156474    3.51513
  0.175657    3.09291
  0.197189     2.7193
  0.221357    2.38486
  0.248483    2.08842
  0.278931    1.76764
  0.314615    1.51885
   0.35378      1.337
  0.392945    1.22786
   0.43211    1.11398
  0.471275    1.01031
   0.51044   0.910923
  0.549604   0.816517
  0.588769    0.72984
  0.627934   0.649485
  0.667099   0.576307
  0.706264   0.513349
  0.745429   0.452865
  0.784593   0.399297
  0.823758   0.354746
  0.862923    0.31915
  0.902088   0.292375
  0.941253   0.273473
  0.980418    0.26361
   1.01958   0.264071
   1.05875   0.274206
   1.09791   0.293894
   1.13708   0.322608
   1.17624   0.360702
   1.21541   0.409087
   1.25457   0.464538
   1.29374   0.524188
    1.3329   0.590168
   1.37207   0.661406
   1.41123   0.738721
    1.4504   0.825077
   1.48956   0.914332
   1.52873    1.01153
   1.56789    1.11377
   1.60706     1.2235
   1.64622    1.33275
   1.68539    1.51851
   1.72107    1.76943
   1.75152    2.08563
   1.77865    2.37795
   1.80281    2.71023
   1.82434    3.08421
   1.84353    3.50541
   1.86062    3.98519
   1.87584    4.54288
   1.88941    5.19619
    1.9015    5.96666
   1.91226    6.87315
   1.92186    7.92919
    1.9304    9.14989
   1.93802    10.5491
    1.9448    12.1377
   1.95084    13.9221
   1.95623    15.9005
   1.96103    18.0752
    1.9653    20.4312
   1.96911    22.9473
    1.9725    25.6041
   1.97552    28.3564
   1.97822    31.1235
   1.98061    33.8001
   1.98275    36.2481
   1.98466    38.3104
   1.98635    39.8012
   1.98786    40.5589
   1.98921    40.4567
   1.99041    39.5035
   1.99148    37.8703
   1.99243    36.0564
   1.99333    34.4142
   1.99421    33.8296
    1.9951    35.4875
     1.996    40.4996
   1.99689    49.7995
   1.99777     63.966
   1.99867    83.4051
   1.99956    109.259
         2    125.408
