         0   -1.01354
  0.000445   -1.00848
  0.001335   -2.94781
  0.002225   -4.44144
  0.003115   -5.18648
  0.004005   -5.04079
  0.004895   -4.03091
  0.005785   -2.32058
  0.006675  -0.153421
0.00756867    2.19349
0.00852095    4.59956
0.00958982    6.99353
 0.0107896    9.13178
 0.0121362    10.8554
 0.0136477    12.0534
 0.0153442    12.7153
 0.0172484    12.8833
 0.0193858     12.654
 0.0217849    12.1271
 0.0244777    11.4026
 0.0275001    10.5577
 0.0308926    9.65442
 0.0347005    8.73619
 0.0389746    7.83662
 0.0437719    6.97782
 0.0491566    6.17481
 0.0552005    5.43606
 0.0619844    4.76591
 0.0695988    4.16608
 0.0781455    3.63625
 0.0877386     3.1718
 0.0985062    2.76484
  0.110592    2.40855
  0.124158    2.09531
  0.139384    1.81858
  0.156474    1.57395
  0.175657    1.36112
  0.197189    1.17042
  0.221357    1.01283
  0.248483   0.865257
  0.278931   0.745507
  0.314615   0.648556
   0.35378   0.562505
  0.392945   0.490393
   0.43211   0.437247
  0.471275   0.387081
   0.51044   0.344616
  0.549604    0.30492
  0.588769   0.270418
  0.627934   0.237287
  0.667099   0.206779
  0.706264   0.178237
  0.745429   0.150874
  0.784593   0.124546
  0.823758  0.0996082
  0.862923  0.0756029
  0.902088  0.0528724
  0.941253  0.0306964
  0.980418 0.00928887
   1.01958 -0.0115077
   1.05875 -0.0326315
   1.09791 -0.0540523
   1.13708 -0.0767791
   1.17624  -0.101324
   1.21541  -0.126746
   1.25457  -0.153585
   1.29374  -0.180429
    1.3329   -0.20888
   1.37207  -0.238468
   1.41123  -0.270783
    1.4504  -0.304456
   1.48956   -0.34382
   1.52873  -0.385492
   1.56789  -0.436434
   1.60706   -0.48927
   1.64622  -0.560116
   1.68539   -0.64555
   1.72107  -0.744339
   1.75152  -0.861632
   1.77865    -1.0064
   1.80281   -1.16374
   1.82434   -1.35529
   1.84353   -1.56835
   1.86062   -1.81432
   1.87584   -2.09108
   1.88941   -2.40513
    1.9015   -2.76398
   1.91226   -3.17455
   1.92186   -3.64334
    1.9304   -4.17608
   1.93802   -4.77716
    1.9448   -5.44895
   1.95084   -6.19068
   1.95623   -6.99667
   1.96103   -7.85681
    1.9653    -8.7551
   1.96911   -9.67148
    1.9725   -10.5758
   1.97552   -11.4243
   1.97822    -12.152
   1.98061   -12.6802
   1.98275    -12.909
   1.98466   -12.7389
   1.98635   -12.0739
   1.98786   -10.8717
   1.98921   -9.14296
   1.99041   -6.99923
   1.99148   -4.59978
   1.99243   -2.18868
   1.99333   0.162834
   1.99421    2.33394
    1.9951    4.04706
     1.996    5.05819
   1.99689    5.20331
   1.99777    4.45573
   1.99867    2.95764
   1.99956    1.01211
         2    1.01734
