         0    363.671
  0.000445     362.08
  0.001335    359.786
  0.002225    354.852
  0.003115     343.76
  0.004005     325.13
  0.004895    300.157
  0.005785    272.134
  0.006675    244.917
0.00756867    220.535
0.00852095    199.598
0.00958982    182.835
 0.0107896    169.628
 0.0121362    158.941
 0.0136477    149.013
 0.0153442    138.238
 0.0172484    125.816
 0.0193858    111.881
 0.0217849    97.1764
 0.0244777    82.6249
 0.0275001    68.9996
 0.0308926    56.7973
 0.0347005    46.2505
 0.0389746    37.3855
 0.0437719    30.0934
 0.0491566    24.1954
 0.0552005    19.4764
 0.0619844    15.7051
 0.0695988    12.6884
 0.0781455    10.2875
 0.0877386    8.37126
 0.0985062    6.83157
  0.110592    5.59843
  0.124158    4.61171
  0.139384     3.8163
  0.156474    3.18087
  0.175657    2.66457
  0.197189    2.24736
  0.221357    1.89254
  0.248483    1.60743
  0.278931    1.30381
  0.314615    1.08219
   0.35378   0.933369
  0.392945   0.867564
   0.43211   0.792887
  0.471275   0.728296
   0.51044   0.663342
  0.549604   0.605959
  0.588769   0.548705
  0.627934   0.495791
  0.667099   0.449214
  0.706264   0.410727
  0.745429   0.371968
  0.784593   0.338434
  0.823758    0.30962
  0.862923   0.285511
  0.902088   0.267106
  0.941253    0.25636
  0.980418   0.251562
   1.01958   0.251853
   1.05875   0.257916
   1.09791   0.269694
   1.13708   0.288406
   1.17624   0.312893
   1.21541   0.342909
   1.25457   0.376895
   1.29374   0.415126
    1.3329     0.4582
   1.37207   0.505948
   1.41123     0.5556
    1.4504   0.612494
   1.48956   0.670482
   1.52873   0.732028
   1.56789   0.791835
   1.60706   0.864073
   1.64622   0.928075
   1.68539    1.08165
   1.72107    1.30542
   1.75152    1.60817
   1.77865    1.88826
   1.80281    2.23687
   1.82434    2.65489
   1.84353    3.16872
   1.86062     3.8042
   1.87584    4.60123
   1.88941    5.59689
    1.9015    6.83185
   1.91226    8.36895
   1.92186    10.2938
    1.9304    12.7029
   1.93802    15.7316
    1.9448    19.5335
   1.95084    24.2822
   1.95623     30.197
   1.96103      37.51
    1.9653     46.395
   1.96911    56.9483
    1.9725     69.152
   1.97552    82.7991
   1.97822    97.3991
   1.98061    112.167
   1.98275    126.166
   1.98466    138.641
   1.98635    149.454
   1.98786    159.419
   1.98921    170.154
   1.99041    183.428
   1.99148    200.277
   1.99243    221.313
   1.99333    245.803
   1.99421    273.135
    1.9951     301.27
     1.996    326.345
   1.99689    345.057
   1.99777    356.205
   1.99867     361.17
   1.99956    363.473
         2    365.064
