         0     -45.25
  0.000445   -45.2202
  0.001335   -45.1055
  0.002225   -44.8267
  0.003115   -44.2847
  0.004005   -43.4039
  0.004895   -42.1465
  0.005785   -40.5186
  0.006675   -38.5675
0.00756867   -36.3476
0.00852095    -33.806
0.00958982   -30.8963
 0.0107896   -27.7049
 0.0121362   -24.3667
 0.0136477   -21.0386
 0.0153442   -17.8693
 0.0172484   -14.9746
 0.0193858   -12.4231
 0.0217849   -10.2365
 0.0244777   -8.40099
 0.0275001   -6.88269
 0.0308926   -5.63893
 0.0347005    -4.6265
 0.0389746   -3.80687
 0.0437719   -3.14644
 0.0491566   -2.61667
 0.0552005   -2.19338
 0.0619844   -1.85556
 0.0695988    -1.5863
 0.0781455   -1.37256
 0.0877386   -1.20337
 0.0985062   -1.06812
  0.110592  -0.957172
  0.124158  -0.863814
  0.139384  -0.786242
  0.156474  -0.718435
  0.175657  -0.663326
  0.197189  -0.609197
  0.221357  -0.576027
  0.248483  -0.530179
  0.278931  -0.496347
  0.314615  -0.488859
   0.35378  -0.435058
  0.392945  -0.395151
   0.43211  -0.367432
  0.471275   -0.33658
   0.51044  -0.311763
  0.549604  -0.287717
  0.588769   -0.26612
  0.627934  -0.242344
  0.667099  -0.221964
  0.706264    -0.2004
  0.745429  -0.177102
  0.784593  -0.151538
  0.823758  -0.126019
  0.862923 -0.0999997
  0.902088 -0.0723636
  0.941253 -0.0436325
  0.980418 -0.0149886
   1.01958  0.0133807
   1.05875  0.0416087
   1.09791   0.071551
   1.13708   0.100978
   1.17624    0.12919
   1.21541   0.155551
   1.25457   0.179351
   1.29374   0.200838
    1.3329   0.221092
   1.37207   0.241747
   1.41123    0.26453
    1.4504    0.28611
   1.48956   0.311495
   1.52873   0.334918
   1.56789   0.365647
   1.60706   0.394023
   1.64622   0.431688
   1.68539   0.484716
   1.72107   0.493912
   1.75152   0.526627
   1.77865   0.571025
   1.80281   0.605003
   1.82434   0.658481
   1.84353   0.714163
   1.86062   0.784472
   1.87584   0.864356
   1.88941   0.959819
    1.9015     1.0714
   1.91226    1.20807
   1.92186    1.37872
    1.9304    1.59188
   1.93802    1.85989
    1.9448    2.19806
   1.95084    2.62299
   1.95623    3.15407
   1.96103    3.81535
    1.9653    4.63494
   1.96911    5.64573
    1.9725    6.88691
   1.97552    8.40267
   1.97822    10.2368
   1.98061    12.4236
   1.98275    14.9767
   1.98466     17.874
   1.98635    21.0478
   1.98786    24.3819
   1.98921    27.7265
   1.99041    30.9242
   1.99148    33.8398
   1.99243    36.3863
   1.99333    38.6106
   1.99421    40.5658
    1.9951    42.1975
     1.996    43.4579
   1.99689    44.3407
   1.99777    44.8839
   1.99867    45.1632
   1.99956    45.2781
         2     45.308
