         0   -45.3008
  0.000445   -45.2718
  0.001335   -45.1605
  0.002225   -44.8894
  0.003115   -44.3592
  0.004005   -43.4936
  0.004895   -42.2531
  0.005785   -40.6401
  0.006675   -38.6977
0.00756867   -36.4788
0.00852095     -33.93
0.00958982   -31.0051
 0.0107896   -27.7932
 0.0121362   -24.4363
 0.0136477   -21.0993
 0.0153442   -17.9342
 0.0172484   -15.0518
 0.0193858   -12.5088
 0.0217849    -10.321
 0.0244777   -8.47801
 0.0275001   -6.95063
 0.0308926   -5.69501
 0.0347005   -4.66694
 0.0389746   -3.83196
 0.0437719   -3.14799
 0.0491566   -2.59359
 0.0552005   -2.17593
 0.0619844   -1.86987
 0.0695988   -1.63814
 0.0781455   -1.45804
 0.0877386   -1.30449
 0.0985062   -1.16854
  0.110592   -1.05833
  0.124158  -0.952031
  0.139384  -0.812538
  0.156474  -0.694602
  0.175657  -0.641147
  0.197189  -0.562213
  0.221357  -0.519386
  0.248483  -0.486501
  0.278931  -0.442346
  0.314615  -0.447983
   0.35378  -0.395247
  0.392945  -0.344054
   0.43211  -0.332052
  0.471275  -0.332201
   0.51044  -0.323619
  0.549604  -0.284587
  0.588769  -0.255303
  0.627934   -0.23804
  0.667099  -0.211044
  0.706264  -0.190655
  0.745429  -0.175734
  0.784593  -0.166082
  0.823758  -0.169197
  0.862923   -0.14649
  0.902088  -0.104113
  0.941253 -0.0634727
  0.980418 -0.0248223
   1.01958  0.0103571
   1.05875  0.0393129
   1.09791  0.0609726
   1.13708  0.0850783
   1.17624   0.118329
   1.21541   0.156253
   1.25457   0.190389
   1.29374   0.220103
    1.3329   0.255126
   1.37207   0.266428
   1.41123   0.269758
    1.4504   0.298864
   1.48956   0.334786
   1.52873   0.351452
   1.56789   0.361134
   1.60706    0.38425
   1.64622   0.420193
   1.68539    0.46783
   1.72107   0.476042
   1.75152   0.493581
   1.77865   0.533066
   1.80281   0.608209
   1.82434   0.699346
   1.84353   0.742982
   1.86062   0.794794
   1.87584   0.866227
   1.88941   0.935877
    1.9015    1.04622
   1.91226    1.22622
   1.92186    1.42566
    1.9304    1.63338
   1.93802    1.86643
    1.9448    2.16489
   1.95084    2.57951
   1.95623    3.12392
   1.96103    3.80818
    1.9653    4.66057
   1.96911    5.69812
    1.9725     6.9433
   1.97552    8.44244
   1.97822    10.2575
   1.98061    12.4368
   1.98275    14.9923
   1.98466    17.8949
   1.98635    21.0744
   1.98786    24.4119
   1.98921    27.7542
   1.99041    30.9448
   1.99148    33.8458
   1.99243    36.3715
   1.99333    38.5717
   1.99421    40.5008
    1.9951    42.1058
     1.996    43.3417
   1.99689    44.2044
   1.99777    44.7325
   1.99867    45.0019
   1.99956     45.112
         2    45.1406
