         0  0.0745621
  0.000445  0.0745621
  0.001335   0.670411
  0.002225    1.85261
  0.003115    3.58473
  0.004005    5.78938
  0.004895    8.34498
  0.005785    11.0966
  0.006675    13.8776
0.00756867    16.5446
0.00852095    19.1099
0.00958982     21.537
 0.0107896    23.6276
 0.0121362    25.1979
 0.0136477    26.1188
 0.0153442    26.3438
 0.0172484    25.9123
 0.0193858    24.9304
 0.0217849     23.538
 0.0244777    21.8778
 0.0275001    20.0752
 0.0308926    18.2292
 0.0347005    16.4123
 0.0389746    14.6739
 0.0437719    13.0453
 0.0491566    11.5439
 0.0552005    10.1788
 0.0619844    8.95222
 0.0695988    7.86192
 0.0781455    6.89985
 0.0877386     6.0566
 0.0985062     5.3207
  0.110592     4.6781
  0.124158    4.11514
  0.139384    3.62539
  0.156474    3.19435
  0.175657    2.82218
  0.197189    2.49002
  0.221357    2.21379
  0.248483    1.95283
  0.278931    1.75227
  0.314615    1.47689
   0.35378    1.34163
  0.392945     1.1984
   0.43211    1.08156
  0.471275   0.970205
   0.51044   0.874386
  0.549604   0.782105
  0.588769   0.701443
  0.627934   0.624624
  0.667099   0.557407
  0.706264    0.49435
  0.745429   0.438357
  0.784593    0.38829
  0.823758   0.345638
  0.862923   0.310953
  0.902088    0.28461
  0.941253   0.266752
  0.980418   0.258268
   1.01958   0.259193
   1.05875   0.269188
   1.09791   0.288339
   1.13708   0.316227
   1.17624   0.352418
   1.21541   0.395774
   1.25457    0.44652
   1.29374   0.503068
    1.3329   0.566407
   1.37207   0.633762
   1.41123   0.709298
    1.4504   0.790105
   1.48956   0.877788
   1.52873   0.969128
   1.56789    1.07977
   1.60706    1.19618
   1.64622    1.33844
   1.68539    1.47506
   1.72107    1.75257
   1.75152    1.95148
   1.77865    2.20772
   1.80281    2.48373
   1.82434     2.8182
   1.84353    3.19171
   1.86062    3.62556
   1.87584    4.11645
   1.88941    4.68027
    1.9015    5.32557
   1.91226    6.06578
   1.92186    6.91219
    1.9304    7.87818
   1.93802    8.97304
    1.9448    10.2053
   1.95084    11.5787
   1.95623    13.0909
   1.96103    14.7314
    1.9653    16.4816
   1.96911    18.3099
    1.9725    20.1667
   1.97552    21.9798
   1.97822    23.6507
   1.98061    25.0536
   1.98275    26.0448
   1.98466    26.4828
   1.98635    26.2605
   1.98786    25.3375
   1.98921    23.7604
   1.99041     21.659
   1.99148    19.2185
   1.99243    16.6387
   1.99333    13.9563
   1.99421    11.1593
    1.9951    8.39199
     1.996    5.82189
   1.99689    3.60481
   1.99777    1.86297
   1.99867   0.674158
   1.99956  0.0749788
         2  0.0749788
