         0          0
  0.000445 2.74702e-10
  0.001335 4.98669e-09
  0.002225 1.80361e-08
  0.003115 4.0265e-08
  0.004005 7.12414e-08
  0.004895 1.11129e-07
  0.005785 1.61569e-07
  0.006675 2.24181e-07
0.00756867 3.06057e-07
0.00852095 4.46781e-07
0.00958982 6.64918e-07
 0.0107896 9.8203e-07
 0.0121362 1.45062e-06
 0.0136477 2.10276e-06
 0.0153442 2.96033e-06
 0.0172484 4.06773e-06
 0.0193858 5.42403e-06
 0.0217849 7.00456e-06
 0.0244777 8.81778e-06
 0.0275001 1.08369e-05
 0.0308926 1.29941e-05
 0.0347005 1.52925e-05
 0.0389746 1.76062e-05
 0.0437719 1.9914e-05
 0.0491566 2.22599e-05
 0.0552005 2.45558e-05
 0.0619844 2.66597e-05
 0.0695988 2.87121e-05
 0.0781455 3.05597e-05
 0.0877386 3.23159e-05
 0.0985062 3.39974e-05
  0.110592 3.56217e-05
  0.124158 3.67951e-05
  0.139384 3.8012e-05
  0.156474 3.89734e-05
  0.175657 3.99923e-05
  0.197189 4.09475e-05
  0.221357 4.18512e-05
  0.248483 4.28425e-05
  0.278931 4.3694e-05
  0.314615 4.68214e-05
   0.35378 4.41097e-05
  0.392945 4.20538e-05
   0.43211 3.99851e-05
  0.471275 3.76791e-05
   0.51044 3.61368e-05
  0.549604 3.43311e-05
  0.588769 3.26048e-05
  0.627934 3.10183e-05
  0.667099 2.90566e-05
  0.706264 2.72949e-05
  0.745429 2.56563e-05
  0.784593 2.45064e-05
  0.823758 2.35221e-05
  0.862923 2.26095e-05
  0.902088 2.16589e-05
  0.941253 2.13768e-05
  0.980418 2.13811e-05
   1.01958 2.1458e-05
   1.05875 2.17304e-05
   1.09791 2.21955e-05
   1.13708 2.29428e-05
   1.17624 2.42169e-05
   1.21541 2.52007e-05
   1.25457 2.69483e-05
   1.29374 2.8391e-05
    1.3329 2.95392e-05
   1.37207 3.12146e-05
   1.41123 3.26571e-05
    1.4504 3.42693e-05
   1.48956 3.59017e-05
   1.52873 3.80085e-05
   1.56789 4.07115e-05
   1.60706 4.26392e-05
   1.64622 4.49491e-05
   1.68539 4.71866e-05
   1.72107 4.38231e-05
   1.75152 4.29061e-05
   1.77865 4.17579e-05
   1.80281 4.0213e-05
   1.82434 3.93861e-05
   1.84353 3.85828e-05
   1.86062 3.73121e-05
   1.87584 3.58074e-05
   1.88941 3.46239e-05
    1.9015 3.33067e-05
   1.91226 3.17465e-05
   1.92186 3.00933e-05
    1.9304 2.83419e-05
   1.93802 2.64714e-05
    1.9448 2.44067e-05
   1.95084 2.2193e-05
   1.95623 1.98667e-05
   1.96103  1.745e-05
    1.9653 1.51113e-05
   1.96911 1.28169e-05
    1.9725 1.07061e-05
   1.97552 8.77174e-06
   1.97822 7.0075e-06
   1.98061 5.4525e-06
   1.98275 4.13012e-06
   1.98466 3.02267e-06
   1.98635 2.1431e-06
   1.98786 1.48767e-06
   1.98921 1.01856e-06
   1.99041 6.96612e-07
   1.99148 4.70976e-07
   1.99243 3.22288e-07
   1.99333 2.34701e-07
   1.99421 1.67233e-07
    1.9951 1.14905e-07
     1.996 7.32293e-08
   1.99689 4.13018e-08
   1.99777 1.84748e-08
   1.99867 5.1004e-09
   1.99956 2.79059e-10
         2          0
