         0          0
  0.000445 2.7736e-10
  0.001335 5.10887e-09
  0.002225 1.8542e-08
  0.003115 4.14862e-08
  0.004005 7.35477e-08
  0.004895 1.14921e-07
  0.005785 1.66965e-07
  0.006675 2.32354e-07
0.00756867 3.17039e-07
0.00852095 4.64113e-07
0.00958982 6.87227e-07
 0.0107896 1.02025e-06
 0.0121362 1.50122e-06
 0.0136477 2.16621e-06
 0.0153442 3.04294e-06
 0.0172484 4.14771e-06
 0.0193858 5.48491e-06
 0.0217849 7.04837e-06
 0.0244777 8.82375e-06
 0.0275001 1.07893e-05
 0.0308926 1.2916e-05
 0.0347005 1.51677e-05
 0.0389746 1.74989e-05
 0.0437719 1.98585e-05
 0.0491566 2.21907e-05
 0.0552005 2.44421e-05
 0.0619844 2.65668e-05
 0.0695988 2.85314e-05
 0.0781455 3.0331e-05
 0.0877386 3.1966e-05
 0.0985062 3.34533e-05
  0.110592 3.48178e-05
  0.124158 3.60825e-05
  0.139384 3.72773e-05
  0.156474 3.84154e-05
  0.175657 3.9506e-05
  0.197189 4.05536e-05
  0.221357 4.15634e-05
  0.248483 4.25355e-05
  0.278931 4.33167e-05
  0.314615 4.63759e-05
   0.35378 4.38858e-05
  0.392945 4.18243e-05
   0.43211 3.98458e-05
  0.471275 3.79458e-05
   0.51044 3.61336e-05
  0.549604 3.43679e-05
  0.588769 3.26341e-05
  0.627934  3.095e-05
  0.667099 2.93103e-05
  0.706264 2.77388e-05
  0.745429 2.62492e-05
  0.784593 2.48562e-05
  0.823758 2.36287e-05
  0.862923 2.25922e-05
  0.902088 2.17774e-05
  0.941253 2.1198e-05
  0.980418 2.08947e-05
   1.01958 2.08832e-05
   1.05875 2.11736e-05
   1.09791 2.1751e-05
   1.13708 2.25816e-05
   1.17624 2.36441e-05
   1.21541 2.48717e-05
   1.25457 2.6243e-05
   1.29374 2.77409e-05
    1.3329 2.93162e-05
   1.37207 3.09673e-05
   1.41123 3.26474e-05
    1.4504 3.43695e-05
   1.48956 3.61251e-05
   1.52873 3.79533e-05
   1.56789 3.98827e-05
   1.60706 4.18742e-05
   1.64622 4.39375e-05
   1.68539 4.64272e-05
   1.72107 4.33552e-05
   1.75152 4.25858e-05
   1.77865 4.15944e-05
   1.80281 4.05635e-05
   1.82434  3.949e-05
   1.84353 3.8397e-05
   1.86062 3.72557e-05
   1.87584 3.60613e-05
   1.88941 3.47998e-05
    1.9015 3.34376e-05
   1.91226 3.19572e-05
   1.92186 3.03287e-05
    1.9304 2.85343e-05
   1.93802 2.65702e-05
    1.9448 2.44485e-05
   1.95084 2.22001e-05
   1.95623 1.98704e-05
   1.96103 1.75116e-05
    1.9653 1.51792e-05
   1.96911 1.29254e-05
    1.9725 1.07965e-05
   1.97552 8.82947e-06
   1.97822 7.05298e-06
   1.98061 5.48882e-06
   1.98275 4.15102e-06
   1.98466 3.04546e-06
   1.98635 2.16811e-06
   1.98786 1.50248e-06
   1.98921 1.02087e-06
   1.99041 6.8747e-07
   1.99148 4.64197e-07
   1.99243 3.17064e-07
   1.99333 2.32389e-07
   1.99421 1.67005e-07
    1.9951 1.14958e-07
     1.996 7.35739e-08
   1.99689 4.14993e-08
   1.99777 1.85466e-08
   1.99867 5.10986e-09
   1.99956 2.77415e-10
         2          0
