         0 0.00112911
  0.000445 0.00112911
  0.001335 0.00112907
  0.002225 0.00112874
  0.003115 0.00112783
  0.004005 0.00112601
  0.004895 0.00112296
  0.005785 0.00111841
  0.006675 0.00111215
0.00756867 0.00110399
0.00852095  0.0010931
0.00958982 0.00107804
 0.0107896 0.00105758
 0.0121362 0.00103033
 0.0136477 0.000994706
 0.0153442 0.000949055
 0.0172484 0.000891765
 0.0193858 0.00082139
 0.0217849 0.000736807
 0.0244777 0.000637326
 0.0275001 0.000523001
 0.0308926 0.000394975
 0.0347005 0.000255995
 0.0389746 0.000109882
 0.0437719 -3.85573e-05
 0.0491566 -0.000184287
 0.0552005 -0.000322426
 0.0619844 -0.000449399
 0.0695988 -0.000562688
 0.0781455 -0.000660993
 0.0877386 -0.000741307
 0.0985062 -0.000801604
  0.110592 -0.000845017
  0.124158 -0.000873853
  0.139384 -0.000886497
  0.156474 -0.000887325
  0.175657 -0.000878325
  0.197189 -0.000854128
  0.221357 -0.00080342
  0.248483 -0.000759457
  0.278931 -0.000676792
  0.314615 -0.000559589
   0.35378 -0.000460116
  0.392945 -0.00039509
   0.43211 -0.000368462
  0.471275 -0.000334261
   0.51044 -0.000252222
  0.549604 -0.000190055
  0.588769 -9.37927e-05
  0.627934 -1.65318e-05
  0.667099 7.0193e-05
  0.706264 0.000152943
  0.745429 0.000212908
  0.784593 0.000261144
  0.823758 0.000307741
  0.862923 0.000339263
  0.902088 0.000351782
  0.941253 0.000354561
  0.980418 0.000370113
   1.01958 0.000372837
   1.05875 0.00035552
   1.09791 0.000326311
   1.13708 0.000273027
   1.17624 0.000181187
   1.21541 9.49093e-05
   1.25457 2.48281e-05
   1.29374 -4.00241e-05
    1.3329 -8.09977e-05
   1.37207 -0.000113395
   1.41123 -0.000172946
    1.4504 -0.000249777
   1.48956 -0.000305226
   1.52873 -0.000371275
   1.56789 -0.000442644
   1.60706 -0.000513564
   1.64622 -0.000576691
   1.68539 -0.000651741
   1.72107 -0.000738797
   1.75152 -0.000800775
   1.77865 -0.000833115
   1.80281 -0.000860894
   1.82434 -0.000895339
   1.84353 -0.000904286
   1.86062 -0.000884921
   1.87584 -0.000844688
   1.88941 -0.00079588
    1.9015 -0.000744256
   1.91226 -0.000685548
   1.92186 -0.000615826
    1.9304 -0.00052788
   1.93802 -0.000421479
    1.9448 -0.000300187
   1.95084 -0.000166834
   1.95623 -2.46102e-05
   1.96103 0.000121986
    1.9653 0.000267092
   1.96911 0.000405702
    1.9725 0.000533742
   1.97552 0.000648824
   1.97822 0.000749317
   1.98061 0.000834564
   1.98275 0.000905176
   1.98466 0.000962497
   1.98635 0.00100813
   1.98786 0.00104382
   1.98921 0.00107125
   1.99041 0.00109199
   1.99148  0.0011074
   1.99243 0.00111864
   1.99333 0.00112714
   1.99421 0.00113367
    1.9951 0.00113843
     1.996 0.00114162
   1.99689 0.00114352
   1.99777 0.00114447
   1.99867 0.00114481
   1.99956 0.00114485
         2 0.00114485
