         0  0.0019928
  0.000445  0.0019928
  0.001335 0.00199276
  0.002225 0.00199242
  0.003115 0.00199148
  0.004005 0.00198958
  0.004895  0.0019864
  0.005785 0.00198166
  0.006675 0.00197516
0.00756867 0.00196668
0.00852095  0.0019554
0.00958982 0.00193985
 0.0107896 0.00191879
 0.0121362 0.00189082
 0.0136477 0.00185439
 0.0153442  0.0018079
 0.0172484 0.00174973
 0.0193858  0.0016784
 0.0217849 0.00159281
 0.0244777 0.00149242
 0.0275001 0.00137755
 0.0308926  0.0012495
 0.0347005  0.0011107
 0.0389746 0.000964643
 0.0437719 0.000815717
 0.0491566 0.000668874
 0.0552005 0.000529153
 0.0619844 0.00040112
 0.0695988 0.000288346
 0.0781455 0.00019297
 0.0877386 0.000115585
 0.0985062 5.54305e-05
  0.110592 1.10266e-05
  0.124158 -1.93787e-05
  0.139384 -3.6563e-05
  0.156474 -4.08628e-05
  0.175657 -3.21577e-05
  0.197189 -1.09492e-05
  0.221357 2.50535e-05
  0.248483 7.30054e-05
  0.278931 0.00013931
  0.314615 0.000225124
   0.35378 0.000286707
  0.392945 0.000344183
   0.43211 0.000411047
  0.471275 0.000479725
   0.51044 0.000554966
  0.549604 0.000630747
  0.588769 0.000707274
  0.627934 0.000783519
  0.667099 0.000860642
  0.706264 0.000934941
  0.745429 0.00100464
  0.784593 0.00106781
  0.823758  0.0011228
  0.862923 0.00116918
  0.902088   0.001206
  0.941253 0.00123141
  0.980418 0.00124496
   1.01958 0.00124545
   1.05875  0.0012327
   1.09791  0.0012066
   1.13708 0.00116763
   1.17624 0.00111855
   1.21541 0.00106162
   1.25457 0.000998367
   1.29374 0.000929027
    1.3329 0.000855859
   1.37207 0.000780329
   1.41123 0.000703912
    1.4504 0.00062504
   1.48956 0.000550143
   1.52873 0.000475482
   1.56789 0.00040594
   1.60706 0.000338342
   1.64622 0.000279608
   1.68539 0.000216563
   1.72107 0.000132302
   1.75152 6.84917e-05
   1.77865 2.24482e-05
   1.80281 -1.19318e-05
   1.82434 -3.17437e-05
   1.84353 -3.89168e-05
   1.86062 -3.30399e-05
   1.87584 -1.51281e-05
   1.88941 1.53078e-05
    1.9015 5.95989e-05
   1.91226 0.000119475
   1.92186 0.000196496
    1.9304 0.000291476
   1.93802 0.000403841
    1.9448 0.000531479
   1.95084 0.000670859
   1.95623 0.000817408
   1.96103 0.000966058
    1.9653 0.00111184
   1.96911 0.00125038
    1.9725 0.00137819
   1.97552 0.00149287
   1.97822 0.00159311
   1.98061  0.0016786
   1.98275 0.00174985
   1.98466 0.00180798
   1.98635 0.00185444
   1.98786 0.00189085
   1.98921 0.00191881
   1.99041 0.00193986
   1.99148 0.00195541
   1.99243 0.00196668
   1.99333 0.00197516
   1.99421 0.00198166
    1.9951  0.0019864
     1.996 0.00198958
   1.99689 0.00199148
   1.99777 0.00199242
   1.99867 0.00199276
   1.99956  0.0019928
         2  0.0019928
