         0 4.51364e-05
  0.000445 4.51364e-05
  0.001335 4.51043e-05
  0.002225 4.50916e-05
  0.003115 4.51082e-05
  0.004005 4.51508e-05
  0.004895 4.52159e-05
  0.005785 4.53004e-05
  0.006675 4.54017e-05
0.00756867 4.55163e-05
0.00852095 4.56479e-05
0.00958982 4.58047e-05
 0.0107896 4.59881e-05
 0.0121362 4.6197e-05
 0.0136477 4.64275e-05
 0.0153442 4.66726e-05
 0.0172484 4.69219e-05
 0.0193858 4.71612e-05
 0.0217849 4.73722e-05
 0.0244777 4.75325e-05
 0.0275001 4.76161e-05
 0.0308926 4.75952e-05
 0.0347005 4.74424e-05
 0.0389746 4.71349e-05
 0.0437719 4.66581e-05
 0.0491566 4.6008e-05
 0.0552005 4.51927e-05
 0.0619844 4.42301e-05
 0.0695988 4.31469e-05
 0.0781455 4.19774e-05
 0.0877386 4.07591e-05
 0.0985062 3.95267e-05
  0.110592 3.83127e-05
  0.124158 3.71405e-05
  0.139384 3.60242e-05
  0.156474 3.49627e-05
  0.175657 3.39455e-05
  0.197189 3.29532e-05
  0.221357 3.19698e-05
  0.248483 3.09857e-05
  0.278931 2.9992e-05
  0.314615 2.89837e-05
   0.35378 2.78903e-05
  0.392945 2.68693e-05
   0.43211 2.59029e-05
  0.471275 2.49886e-05
   0.51044 2.41321e-05
  0.549604 2.3336e-05
  0.588769 2.25744e-05
  0.627934 2.18565e-05
  0.667099 2.12099e-05
  0.706264 2.06239e-05
  0.745429 2.01003e-05
  0.784593 1.96476e-05
  0.823758 1.92622e-05
  0.862923 1.89472e-05
  0.902088 1.87063e-05
  0.941253 1.85391e-05
  0.980418 1.8453e-05
   1.01958 1.84487e-05
   1.05875 1.85285e-05
   1.09791 1.86898e-05
   1.13708 1.8932e-05
   1.17624 1.92549e-05
   1.21541 1.9651e-05
   1.25457 2.01128e-05
   1.29374 2.06347e-05
    1.3329 2.12145e-05
   1.37207 2.18506e-05
   1.41123 2.25433e-05
    1.4504 2.32915e-05
   1.48956 2.40995e-05
   1.52873 2.49728e-05
   1.56789 2.59078e-05
   1.60706 2.68989e-05
   1.64622 2.79436e-05
   1.68539 2.90424e-05
   1.72107 3.00391e-05
   1.75152 3.10236e-05
   1.77865 3.19977e-05
   1.80281 3.29721e-05
   1.82434 3.39651e-05
   1.84353 3.49854e-05
   1.86062 3.60479e-05
   1.87584 3.71603e-05
   1.88941 3.83282e-05
    1.9015 3.95392e-05
   1.91226 4.07706e-05
   1.92186 4.19907e-05
    1.9304 4.31613e-05
   1.93802 4.42453e-05
    1.9448 4.52092e-05
   1.95084 4.60256e-05
   1.95623 4.66761e-05
   1.96103 4.71532e-05
    1.9653 4.74604e-05
   1.96911 4.76125e-05
    1.9725 4.76325e-05
   1.97552 4.75478e-05
   1.97822 4.73864e-05
   1.98061 4.71743e-05
   1.98275 4.6934e-05
   1.98466 4.66838e-05
   1.98635 4.64379e-05
   1.98786 4.62069e-05
   1.98921 4.59975e-05
   1.99041 4.58136e-05
   1.99148 4.56566e-05
   1.99243 4.55248e-05
   1.99333 4.54101e-05
   1.99421 4.53087e-05
    1.9951 4.5224e-05
     1.996 4.51589e-05
   1.99689 4.51162e-05
   1.99777 4.50996e-05
   1.99867 4.51122e-05
   1.99956 4.51443e-05
         2 4.51443e-05
