         0          0
  0.000445 -5.97146e-06
  0.001335 -1.79063e-05
  0.002225 -2.97918e-05
  0.003115 -4.15546e-05
  0.004005 -5.31004e-05
  0.004895 -6.43293e-05
  0.005785 -7.51489e-05
  0.006675 -8.54827e-05
0.00756867 -9.53157e-05
0.00852095 -0.000105175
0.00958982 -0.000115445
 0.0107896 -0.000125996
 0.0121362 -0.000136728
 0.0136477 -0.000147574
 0.0153442 -0.000158497
 0.0172484 -0.000169429
 0.0193858 -0.000180229
 0.0217849 -0.000190637
 0.0244777 -0.000200311
 0.0275001 -0.000209041
 0.0308926 -0.000216952
 0.0347005 -0.000224068
 0.0389746 -0.00022999
 0.0437719 -0.000234097
 0.0491566 -0.000236227
 0.0552005 -0.000235725
 0.0619844 -0.00023194
 0.0695988 -0.000226668
 0.0781455 -0.00022002
 0.0877386 -0.000208343
 0.0985062 -0.000189867
  0.110592 -0.000163443
  0.124158 -0.000126365
  0.139384 -8.87065e-05
  0.156474 -5.71053e-05
  0.175657 -3.34405e-05
  0.197189 -3.14458e-05
  0.221357 -4.28154e-05
  0.248483 -6.49331e-05
  0.278931 -6.85724e-05
  0.314615 -1.07954e-05
   0.35378 4.43797e-05
  0.392945 8.9506e-05
   0.43211 0.000142065
  0.471275 0.000249234
   0.51044 0.000277297
  0.549604 0.000289044
  0.588769 0.00024873
  0.627934 0.000267066
  0.667099 0.000300889
  0.706264 0.000346676
  0.745429 0.00038856
  0.784593 0.000419993
  0.823758 0.000458548
  0.862923 0.000498704
  0.902088 0.000555597
  0.941253 0.000623677
  0.980418 0.000690597
   1.01958 0.00075811
   1.05875 0.000831592
   1.09791 0.000913837
   1.13708 0.00101333
   1.17624 0.00109319
   1.21541 0.00115674
   1.25457 0.00121602
   1.29374 0.00128607
    1.3329 0.00135984
   1.37207 0.00133367
   1.41123 0.00135678
    1.4504 0.00135106
   1.48956   0.001351
   1.52873 0.00131181
   1.56789 0.00125998
   1.60706   0.001227
   1.64622 0.00117442
   1.68539 0.00102941
   1.72107 0.000813009
   1.75152  0.0005632
   1.77865 0.000437585
   1.80281 0.000409818
   1.82434 0.000378392
   1.84353 0.000363533
   1.86062 0.00037213
   1.87584 0.000391042
   1.88941 0.000412555
    1.9015 0.000431721
   1.91226 0.000444978
   1.92186 0.000453935
    1.9304 0.000461996
   1.93802 0.000469745
    1.9448 0.000474205
   1.95084 0.000471222
   1.95623 0.000459035
   1.96103 0.000438586
    1.9653 0.000412154
   1.96911 0.000382374
    1.9725 0.000351238
   1.97552 0.000319941
   1.97822 0.000289461
   1.98061 0.000260498
   1.98275 0.000233493
   1.98466 0.000208746
   1.98635 0.000186405
   1.98786 0.000166441
   1.98921 0.000148679
   1.99041 0.00013287
   1.99148 0.000118753
   1.99243 0.000106096
   1.99333 9.41041e-05
   1.99421 8.20095e-05
    1.9951 6.97384e-05
     1.996 5.72913e-05
   1.99689 4.46926e-05
   1.99777 3.19828e-05
   1.99867 1.92069e-05
   1.99956 6.40383e-06
         2          0
