         0          0
  0.000445 9.93016e-10
  0.001335 6.54437e-08
  0.002225 4.19633e-07
  0.003115 1.40107e-06
  0.004005 3.35365e-06
  0.004895 6.58731e-06
  0.005785 1.13614e-05
  0.006675 1.78733e-05
0.00756867 2.63042e-05
0.00852095 3.74835e-05
0.00958982 5.28116e-05
 0.0107896 7.35212e-05
 0.0121362 0.000101051
 0.0136477 0.000137027
 0.0153442 0.000183202
 0.0172484 0.000241328
 0.0193858 0.000312971
 0.0217849 0.000399287
 0.0244777 0.000500778
 0.0275001 0.000617075
 0.0308926 0.000746779
 0.0347005  0.0008874
 0.0389746  0.0010354
 0.0437719 0.00118638
 0.0491566 0.00133541
 0.0552005  0.0014775
 0.0619844  0.0016082
 0.0695988 0.00172398
 0.0781455 0.00182274
 0.0877386   0.001904
 0.0985062 0.00196853
  0.110592 0.00201787
  0.124158 0.00205387
  0.139384 0.00207769
  0.156474 0.00208985
  0.175657  0.0020907
  0.197189  0.0020807
  0.221357 0.00205903
  0.248483 0.00202635
  0.278931 0.00198148
  0.314615 0.00192189
   0.35378 0.00185751
  0.392945 0.00178617
   0.43211 0.00170837
  0.471275 0.00162634
   0.51044 0.00154057
  0.549604 0.00145315
  0.588769 0.00136696
  0.627934 0.00128128
  0.667099  0.0011959
  0.706264 0.00111356
  0.745429 0.00103783
  0.784593 0.000968352
  0.823758 0.000908751
  0.862923 0.000858275
  0.902088 0.000818469
  0.941253 0.000791044
  0.980418 0.000776366
   1.01958 0.000776009
   1.05875 0.000789615
   1.09791 0.000817964
   1.13708 0.000859445
   1.17624 0.000913196
   1.21541 0.000974382
   1.25457 0.00104423
   1.29374 0.00111951
    1.3329 0.00120102
   1.37207 0.00128417
   1.41123 0.00137003
    1.4504 0.00145874
   1.48956  0.0015449
   1.52873  0.0016298
   1.56789 0.00171323
   1.60706 0.00179135
   1.64622 0.00186448
   1.68539 0.00192978
   1.72107 0.00198846
   1.75152 0.00203012
   1.77865 0.00206102
   1.80281 0.00208112
   1.82434 0.00208973
   1.84353 0.00208727
   1.86062 0.00207382
   1.87584 0.00204933
   1.88941  0.0020134
    1.9015 0.00196423
   1.91226 0.00190008
   1.92186 0.00181919
    1.9304 0.00172081
   1.93802 0.00160546
    1.9448 0.00147518
   1.95084 0.00133342
   1.95623 0.00118469
   1.96103 0.00103399
    1.9653 0.000886267
   1.96911 0.000745901
    1.9725 0.000616422
   1.97552 0.000500314
   1.97822 0.000398969
   1.98061 0.000312758
   1.98275 0.000241188
   1.98466 0.000183112
   1.98635 0.000136969
   1.98786 0.000101014
   1.98921 7.34984e-05
   1.99041 5.27978e-05
   1.99148 3.74753e-05
   1.99243 2.62994e-05
   1.99333 1.78706e-05
   1.99421 1.13599e-05
    1.9951 6.58654e-06
     1.996 3.35333e-06
   1.99689 1.40098e-06
   1.99777 4.19627e-07
   1.99867 6.54504e-08
   1.99956 9.9382e-10
         2          0
