         0          0
  0.000445 1.74286e-05
  0.001335 0.000131309
  0.002225 0.000317788
  0.003115 0.000546609
  0.004005 0.000795582
  0.004895 0.00104903
  0.005785 0.00129661
  0.006675 0.00153214
0.00756867  0.0017534
0.00852095 0.00197247
0.00958982  0.0021959
 0.0107896 0.00241962
 0.0121362 0.00263923
 0.0136477 0.00285005
 0.0153442 0.00304738
 0.0172484 0.00322688
 0.0193858 0.00338506
 0.0217849 0.00351948
 0.0244777 0.00362879
 0.0275001 0.00371266
 0.0308926 0.00377157
 0.0347005 0.00380661
 0.0389746  0.0038194
 0.0437719 0.00381206
 0.0491566 0.00378729
 0.0552005 0.00374808
 0.0619844 0.00369805
 0.0695988 0.00364149
 0.0781455 0.00358176
 0.0877386 0.00352142
 0.0985062 0.00346181
  0.110592 0.00340327
  0.124158 0.00334458
  0.139384 0.00328481
  0.156474 0.00322279
  0.175657 0.00315661
  0.197189 0.00308551
  0.221357 0.00300878
  0.248483 0.00292071
  0.278931 0.00281436
  0.314615 0.00269724
   0.35378 0.00254773
  0.392945 0.00240055
   0.43211  0.0022528
  0.471275 0.00210221
   0.51044 0.00195326
  0.549604 0.00180036
  0.588769 0.00164657
  0.627934 0.00150004
  0.667099 0.00136509
  0.706264 0.00123727
  0.745429 0.00111905
  0.784593 0.00101375
  0.823758 0.000920969
  0.862923 0.000844707
  0.902088 0.000786468
  0.941253 0.000746611
  0.980418 0.00072405
   1.01958 0.000720422
   1.05875 0.000736622
   1.09791 0.000773068
   1.13708 0.000830264
   1.17624 0.000907201
   1.21541 0.000999962
   1.25457 0.00110915
   1.29374 0.00123269
    1.3329 0.00136448
   1.37207 0.00150409
   1.41123 0.00164784
    1.4504 0.00179661
   1.48956 0.00195018
   1.52873 0.00210213
   1.56789 0.00225315
   1.60706 0.00240268
   1.64622 0.00254702
   1.68539 0.00268594
   1.72107 0.00280452
   1.75152 0.00291224
   1.77865 0.00300212
   1.80281  0.0030778
   1.82434 0.00314714
   1.84353 0.00321081
   1.86062 0.00326951
   1.87584 0.00332587
   1.88941 0.00338332
    1.9015 0.00344269
   1.91226 0.00350334
   1.92186 0.00356452
    1.9304 0.00362483
   1.93802 0.00368148
    1.9448 0.00373088
   1.95084 0.00376945
   1.95623 0.00379347
   1.96103 0.00380011
    1.9653 0.00378706
   1.96911 0.00375225
    1.9725 0.00369404
   1.97552 0.00361124
   1.97822 0.00350325
   1.98061 0.00337032
   1.98275 0.00321369
   1.98466 0.00303571
   1.98635 0.00283985
   1.98786  0.0026304
   1.98921 0.00241206
   1.99041 0.00218948
   1.99148 0.00196708
   1.99243  0.0017489
   1.99333 0.00152844
   1.99421 0.00129367
    1.9951 0.00104679
     1.996 0.000793975
   1.99689 0.000545559
   1.99777 0.000317205
   1.99867 0.000131079
   1.99956 1.73999e-05
         2          0
