         0          0
  0.000445 6.33739e-05
  0.001335 0.000568593
  0.002225  0.0015723
  0.003115 0.00305004
  0.004005 0.00494678
  0.004895 0.00717261
  0.005785 0.00960886
  0.006675   0.012123
0.00756867  0.0145976
0.00852095  0.0170714
0.00958982  0.0195175
 0.0107896  0.0217608
 0.0121362  0.0236245
 0.0136477   0.024965
 0.0153442  0.0257021
 0.0172484  0.0258305
 0.0193858  0.0254099
 0.0217849   0.024542
 0.0244777  0.0233437
 0.0275001  0.0219268
 0.0308926  0.0203873
 0.0347005  0.0188017
 0.0389746  0.0172287
 0.0437719  0.0157129
 0.0491566  0.0142873
 0.0552005  0.0129728
 0.0619844   0.011782
 0.0695988  0.0107228
 0.0781455 0.00979647
 0.0877386 0.00899612
 0.0985062 0.00830942
  0.110592 0.00772137
  0.124158 0.00721494
  0.139384 0.00677964
  0.156474 0.00640441
  0.175657 0.00607158
  0.197189 0.00577351
  0.221357 0.00550079
  0.248483 0.00524343
  0.278931 0.00498585
  0.314615 0.00471119
   0.35378  0.0044213
  0.392945 0.00414234
   0.43211 0.00386489
  0.471275 0.00358406
   0.51044  0.0033156
  0.549604 0.00304782
  0.588769 0.00278963
  0.627934 0.00254147
  0.667099 0.00230385
  0.706264 0.00207617
  0.745429 0.00186222
  0.784593 0.00166649
  0.823758 0.00148951
  0.862923 0.00133906
  0.902088 0.00122293
  0.941253 0.00114262
  0.980418 0.00110402
   1.01958 0.00110566
   1.05875 0.00114999
   1.09791 0.00123441
   1.13708 0.00135582
   1.17624 0.00150916
   1.21541 0.00168816
   1.25457 0.00188683
   1.29374 0.00209911
    1.3329 0.00232247
   1.37207 0.00255646
   1.41123 0.00279747
    1.4504 0.00304136
   1.48956 0.00329384
   1.52873 0.00355335
   1.56789 0.00382282
   1.60706 0.00409441
   1.64622 0.00437203
   1.68539 0.00466423
   1.72107 0.00494175
   1.75152 0.00520363
   1.77865 0.00547088
   1.80281 0.00574939
   1.82434 0.00605293
   1.84353 0.00639442
   1.86062 0.00677889
   1.87584 0.00721985
   1.88941 0.00773025
    1.9015 0.00832419
   1.91226 0.00901709
   1.92186 0.00982151
    1.9304  0.0107468
   1.93802  0.0118009
    1.9448  0.0129856
   1.95084  0.0142947
   1.95623  0.0157155
   1.96103  0.0172259
    1.9653   0.018793
   1.96911   0.020372
    1.9725   0.021904
   1.97552  0.0233133
   1.97822  0.0245047
   1.98061  0.0253676
   1.98275  0.0257857
   1.98466  0.0256573
   1.98635  0.0249219
   1.98786  0.0235844
   1.98921  0.0217243
   1.99041  0.0194849
   1.99148  0.0170428
   1.99243   0.014573
   1.99333  0.0121023
   1.99421 0.00959216
    1.9951 0.00715994
     1.996 0.00493792
   1.99689 0.00304452
   1.99777 0.00156944
   1.99867 0.00056756
   1.99956 6.32598e-05
         2          0
