         0     320.03
  0.000445    319.155
  0.001335    317.745
  0.002225    314.106
  0.003115    305.693
  0.004005    291.278
  0.004895    271.311
  0.005785    247.806
  0.006675    223.572
0.00756867    201.073
0.00852095    180.631
0.00958982    163.391
 0.0107896    150.301
 0.0121362    140.893
 0.0136477    133.537
 0.0153442    126.247
 0.0172484    117.565
 0.0193858    106.993
 0.0217849    94.8992
 0.0244777    82.1072
 0.0275001    69.4996
 0.0308926    57.7678
 0.0347005    47.3406
 0.0389746     38.403
 0.0437719    30.9387
 0.0491566     24.819
 0.0552005     19.873
 0.0619844    15.9166
 0.0695988    12.7621
 0.0781455    10.2476
 0.0877386     8.2493
 0.0985062     6.6573
  0.110592    5.38938
  0.124158    4.38676
  0.139384    3.58738
  0.156474    2.94863
  0.175657    2.43933
  0.197189    2.02509
  0.221357    1.68941
  0.248483    1.41149
  0.278931    1.15764
  0.314615   0.949397
   0.35378   0.837709
  0.392945   0.767385
   0.43211   0.702634
  0.471275   0.645005
   0.51044   0.588088
  0.549604   0.536886
  0.588769   0.490704
  0.627934   0.447172
  0.667099   0.406686
  0.706264   0.369677
  0.745429   0.336034
  0.784593   0.306441
  0.823758    0.28114
  0.862923   0.260449
  0.902088   0.244173
  0.941253   0.233299
  0.980418   0.227098
   1.01958   0.227118
   1.05875   0.233333
   1.09791   0.244834
   1.13708   0.260979
   1.17624   0.282073
   1.21541   0.307306
   1.25457   0.336999
   1.29374   0.370448
    1.3329   0.406128
   1.37207   0.445238
   1.41123   0.488203
    1.4504   0.536316
   1.48956   0.586033
   1.52873   0.642392
   1.56789   0.702261
   1.60706   0.766402
   1.64622   0.836876
   1.68539   0.952027
   1.72107    1.16109
   1.75152    1.41392
   1.77865    1.69222
   1.80281    2.02544
   1.82434    2.43525
   1.84353    2.94325
   1.86062    3.58289
   1.87584    4.38379
   1.88941    5.38815
    1.9015    6.65189
   1.91226     8.2428
   1.92186    10.2427
    1.9304    12.7605
   1.93802     15.922
    1.9448    19.8792
   1.95084    24.8246
   1.95623    30.9458
   1.96103    38.4144
    1.9653    47.3589
   1.96911    57.8045
    1.9725    69.5778
   1.97552    82.2431
   1.97822    95.0943
   1.98061    107.232
   1.98275    117.812
   1.98466    126.464
   1.98635    133.693
   1.98786    140.976
   1.98921    150.307
   1.99041    163.324
   1.99148    180.494
   1.99243    200.872
   1.99333    223.306
   1.99421    247.471
    1.9951    270.905
     1.996    290.805
   1.99689    305.165
   1.99777    313.544
   1.99867    317.167
   1.99956    318.576
         2    319.453
