         0  0.0628229
  0.000445  0.0628229
  0.001335   0.565029
  0.002225    1.56315
  0.003115    3.03226
  0.004005    4.91834
  0.004895    7.13452
  0.005785     9.5661
  0.006675    12.0835
0.00756867      14.57
0.00852095    17.0634
0.00958982    19.5342
 0.0107896    21.7982
 0.0121362    23.6624
 0.0136477     24.964
 0.0153442    25.6061
 0.0172484    25.5752
 0.0193858    24.9354
 0.0217849    23.8032
 0.0244777    22.3162
 0.0275001    20.6062
 0.0308926    18.7853
 0.0347005    16.9407
 0.0389746    15.1368
 0.0437719    13.4197
 0.0491566    11.8204
 0.0552005    10.3571
 0.0619844    9.03814
 0.0695988    7.86617
 0.0781455    6.83767
 0.0877386     5.9423
 0.0985062    5.16646
  0.110592    4.49604
  0.124158     3.9161
  0.139384    3.41606
  0.156474    2.98396
  0.175657    2.60722
  0.197189    2.27879
  0.221357    1.99377
  0.248483    1.74636
  0.278931    1.52573
  0.314615    1.32906
   0.35378    1.16612
  0.392945    1.04264
   0.43211    0.93754
  0.471275   0.844284
   0.51044    0.76222
  0.549604   0.687271
  0.588769   0.618366
  0.627934   0.554822
  0.667099    0.49648
  0.706264   0.442239
  0.745429   0.393561
  0.784593   0.350209
  0.823758   0.312377
  0.862923   0.281454
  0.902088   0.257803
  0.941253   0.241432
  0.980418   0.232915
   1.01958   0.232626
   1.05875   0.241155
   1.09791   0.257581
   1.13708    0.28157
   1.17624   0.312658
   1.21541   0.350497
   1.25457   0.393611
   1.29374   0.442483
    1.3329   0.496028
   1.37207   0.554545
   1.41123   0.618124
    1.4504   0.686762
   1.48956   0.762601
   1.52873   0.846237
   1.56789   0.940731
   1.60706    1.04811
   1.64622    1.17374
   1.68539    1.33745
   1.72107    1.53501
   1.75152    1.75501
   1.77865    2.00158
   1.80281    2.28405
   1.82434    2.61187
   1.84353    2.98882
   1.86062    3.42207
   1.87584     3.9221
   1.88941    4.50062
    1.9015    5.17086
   1.91226     5.9466
   1.92186    6.84197
    1.9304    7.87013
   1.93802    9.04158
    1.9448    10.3611
   1.95084    11.8263
   1.95623    13.4276
   1.96103    15.1466
    1.9653    16.9525
   1.96911     18.799
    1.9725    20.6212
   1.97552    22.3318
   1.97822    23.8193
   1.98061     24.952
   1.98275    25.5932
   1.98466    25.6258
   1.98635    24.9851
   1.98786     23.684
   1.98921    21.8191
   1.99041    19.5535
   1.99148    17.0802
   1.99243    14.5841
   1.99333     12.095
   1.99421    9.57483
    1.9951    7.14077
     1.996    4.92249
   1.99689    3.03473
   1.99777    1.56439
   1.99867   0.565474
   1.99956  0.0628721
         2  0.0628721
