         0   -42.7491
  0.000445   -42.7225
  0.001335    -42.627
  0.002225    -42.407
  0.003115   -41.9869
  0.004005   -41.3065
  0.004895   -40.3303
  0.005785   -39.0528
  0.006675   -37.4987
0.00756867    -35.704
0.00852095   -33.5976
0.00958982   -31.1083
 0.0107896   -28.2916
 0.0121362    -25.246
 0.0136477   -22.1044
 0.0153442   -19.0117
 0.0172484   -16.0981
 0.0193858   -13.4588
 0.0217849   -11.1449
 0.0244777   -9.16758
 0.0275001   -7.50944
 0.0308926   -6.13791
 0.0347005   -5.01498
 0.0389746   -4.10275
 0.0437719   -3.36613
 0.0491566   -2.77441
 0.0552005   -2.30149
 0.0619844   -1.92552
 0.0695988   -1.62802
 0.0781455   -1.39307
 0.0877386   -1.20758
 0.0985062   -1.05994
  0.110592  -0.940388
  0.124158  -0.842264
  0.139384  -0.760266
  0.156474  -0.691394
  0.175657  -0.633062
  0.197189  -0.582198
  0.221357  -0.538574
  0.248483   -0.49933
  0.278931  -0.465435
  0.314615   -0.43557
   0.35378  -0.402071
  0.392945  -0.369413
   0.43211  -0.341151
  0.471275   -0.31496
   0.51044   -0.29164
  0.549604  -0.271163
  0.588769  -0.251282
  0.627934  -0.230849
  0.667099  -0.210629
  0.706264  -0.190327
  0.745429  -0.169011
  0.784593   -0.14613
  0.823758  -0.122135
  0.862923 -0.0977605
  0.902088 -0.0726623
  0.941253 -0.0456649
  0.980418 -0.0164834
   1.01958  0.0130834
   1.05875  0.0422646
   1.09791    0.07068
   1.13708  0.0968351
   1.17624   0.121303
   1.21541   0.145052
   1.25457   0.167916
   1.29374   0.189773
    1.3329    0.21013
   1.37207   0.230154
   1.41123    0.25093
    1.4504   0.270749
   1.48956    0.29184
   1.52873   0.315782
   1.56789   0.341816
   1.60706   0.370485
   1.64622    0.40429
   1.68539   0.437639
   1.72107   0.465395
   1.75152   0.497399
   1.77865   0.535328
   1.80281   0.578688
   1.82434   0.630201
   1.84353   0.690184
   1.86062   0.761151
   1.87584   0.844401
   1.88941    0.94285
    1.9015    1.06253
   1.91226    1.21105
   1.92186    1.39735
    1.9304    1.63289
   1.93802     1.9305
    1.9448    2.30577
   1.95084    2.77799
   1.95623    3.36931
   1.96103      4.106
    1.9653    5.01913
   1.96911    6.14361
    1.9725    7.51691
   1.97552    9.17665
   1.97822    11.1551
   1.98061    13.4693
   1.98275    16.1083
   1.98466    19.0213
   1.98635    22.1136
   1.98786     25.255
   1.98921    28.3006
   1.99041    31.1175
   1.99148    33.6068
   1.99243    35.7132
   1.99333    37.5077
   1.99421    39.0615
    1.9951    40.3386
     1.996    41.3144
   1.99689    41.9945
   1.99777    42.4144
   1.99867    42.6342
   1.99956    42.7297
         2    42.7563
