         0  -0.772505
  0.000445  -0.769148
  0.001335   -2.25225
  0.002225   -3.43519
  0.003115   -4.11532
  0.004005   -4.18804
  0.004895   -3.65167
  0.005785   -2.59284
  0.006675   -1.15604
0.00756867   0.498662
0.00852095    2.31132
0.00958982    4.23436
 0.0107896     6.1011
 0.0121362    7.74374
 0.0136477    9.03123
 0.0153442    9.89462
 0.0172484     10.331
 0.0193858    10.3889
 0.0217849    10.1443
 0.0244777    9.67937
 0.0275001    9.06816
 0.0308926    8.37085
 0.0347005    7.63336
 0.0389746    6.88969
 0.0437719    6.16427
 0.0491566    5.47426
 0.0552005    4.83163
 0.0619844    4.24454
 0.0695988     3.7161
 0.0781455     3.2461
 0.0877386    2.83142
 0.0985062    2.46708
  0.110592    2.14711
  0.124158    1.86621
  0.139384    1.61971
  0.156474    1.40194
  0.175657    1.21079
  0.197189    1.04308
  0.221357   0.896054
  0.248483   0.768079
  0.278931   0.658993
  0.314615   0.559603
   0.35378   0.483597
  0.392945   0.423521
   0.43211   0.374431
  0.471275   0.332972
   0.51044   0.297447
  0.549604   0.265049
  0.588769     0.2354
  0.627934   0.207633
  0.667099   0.181663
  0.706264   0.156383
  0.745429   0.132625
  0.784593   0.109813
  0.823758  0.0885039
  0.862923  0.0680114
  0.902088    0.04846
  0.941253  0.0293242
  0.980418  0.0103609
   1.01958 -0.00877706
   1.05875  -0.027985
   1.09791 -0.0474164
   1.13708  -0.067465
   1.17624 -0.0883858
   1.21541   -0.11008
   1.25457  -0.132663
   1.29374  -0.156523
    1.3329  -0.182528
   1.37207  -0.209197
   1.41123  -0.236895
    1.4504  -0.266093
   1.48956  -0.298131
   1.52873  -0.333354
   1.56789  -0.374974
   1.60706  -0.424495
   1.64622  -0.484577
   1.68539  -0.560971
   1.72107  -0.661058
   1.75152  -0.770084
   1.77865  -0.897027
   1.80281   -1.04314
   1.82434    -1.2114
   1.84353   -1.40295
   1.86062   -1.62035
   1.87584   -1.86635
   1.88941   -2.14643
    1.9015   -2.46538
   1.91226   -2.82918
   1.92186   -3.24513
    1.9304   -3.71671
   1.93802   -4.24708
    1.9448   -4.83665
   1.95084   -5.47989
   1.95623   -6.16937
   1.96103   -6.89414
    1.9653   -7.63756
   1.96911   -8.37511
    1.9725   -9.07293
   1.97552    -9.6856
   1.97822   -10.1531
   1.98061   -10.4008
   1.98275   -10.3455
   1.98466   -9.91064
   1.98635   -9.04743
   1.98786   -7.75889
   1.98921   -6.11432
   1.99041   -4.24515
   1.99148   -2.31961
   1.99243  -0.504793
   1.99333    1.15156
   1.99421    2.58943
    1.9951    3.64875
     1.996     4.1852
   1.99689    4.11249
   1.99777    3.43257
   1.99867    2.25029
   1.99956   0.768372
         2   0.771669
