         0    87.9968
  0.000445    76.9981
  0.001335    59.2678
  0.002225    45.8451
  0.003115    35.9136
  0.004005    29.1206
  0.004895    25.0836
  0.005785    23.2568
  0.006675     22.995
0.00756867    23.6618
0.00852095      24.74
0.00958982    25.9923
 0.0107896    27.0996
 0.0121362    27.8019
 0.0136477    27.9553
 0.0153442     27.534
 0.0172484    26.5989
 0.0193858     25.257
 0.0217849    23.6288
 0.0244777    21.8285
 0.0275001    19.9526
 0.0308926    18.0744
 0.0347005     16.247
 0.0389746    14.5066
 0.0437719    12.8759
 0.0491566    11.3698
 0.0552005    9.99981
 0.0619844    8.76987
 0.0695988    7.67552
 0.0781455    6.71404
 0.0877386    5.87529
 0.0985062    5.14701
  0.110592    4.51444
  0.124158    3.96653
  0.139384    3.48793
  0.156474    3.06592
  0.175657    2.69311
  0.197189    2.35889
  0.221357    2.05646
  0.248483    1.78726
  0.278931    1.52502
  0.314615    1.28945
   0.35378    1.14336
  0.392945    1.04202
   0.43211   0.947139
  0.471275   0.861351
   0.51044   0.780265
  0.549604   0.705154
  0.588769   0.635714
  0.627934    0.56956
  0.667099    0.50738
  0.706264   0.449661
  0.745429   0.399105
  0.784593   0.354035
  0.823758   0.315795
  0.862923   0.284168
  0.902088   0.259592
  0.941253   0.243096
  0.980418   0.234624
   1.01958   0.234113
   1.05875    0.24197
   1.09791   0.258089
   1.13708   0.282807
   1.17624   0.315464
   1.21541   0.354329
   1.25457   0.398991
   1.29374   0.449876
    1.3329   0.507926
   1.37207   0.569408
   1.41123   0.635789
    1.4504   0.706576
   1.48956   0.779403
   1.52873   0.860034
   1.56789   0.949081
   1.60706    1.04527
   1.64622    1.14795
   1.68539    1.29595
   1.72107    1.52853
   1.75152    1.79014
   1.77865    2.05875
   1.80281    2.35841
   1.82434    2.69271
   1.84353    3.06512
   1.86062    3.48581
   1.87584    3.96503
   1.88941    4.51254
    1.9015    5.13978
   1.91226    5.86604
   1.92186    6.70667
    1.9304    7.67007
   1.93802     8.7645
    1.9448    9.99779
   1.95084      11.37
   1.95623    12.8787
   1.96103    14.5128
    1.9653    16.2566
   1.96911    18.0876
    1.9725    19.9672
   1.97552    21.8436
   1.97822    23.6445
   1.98061    25.2731
   1.98275    26.6132
   1.98466    27.5438
   1.98635    27.9591
   1.98786    27.7987
   1.98921     27.088
   1.99041    25.9704
   1.99148    24.7064
   1.99243    23.6166
   1.99333    22.9394
   1.99421    23.1927
    1.9951    25.0129
     1.996    29.0439
   1.99689    35.8292
   1.99777    45.7494
   1.99867    59.1558
   1.99956    76.8652
         2    87.8517
