         0    -42.296
  0.000445   -42.2694
  0.001335   -42.1755
  0.002225   -41.9606
  0.003115   -41.5515
  0.004005   -40.8895
  0.004895   -39.9391
  0.005785   -38.6938
  0.006675    -37.176
0.00756867   -35.4199
0.00852095   -33.3548
0.00958982   -30.9096
 0.0107896   -28.1371
 0.0121362   -25.1318
 0.0136477   -22.0243
 0.0153442   -18.9586
 0.0172484   -16.0654
 0.0193858   -13.4362
 0.0217849   -11.1191
 0.0244777   -9.13063
 0.0275001   -7.46094
 0.0308926   -6.07652
 0.0347005    -4.9389
 0.0389746   -4.01501
 0.0437719   -3.26534
 0.0491566    -2.6588
 0.0552005   -2.20005
 0.0619844   -1.87486
 0.0695988   -1.62086
 0.0781455   -1.41932
 0.0877386   -1.28693
 0.0985062   -1.19282
  0.110592   -1.09501
  0.124158  -0.987142
  0.139384  -0.876408
  0.156474  -0.760285
  0.175657   -0.66333
  0.197189  -0.592623
  0.221357  -0.527551
  0.248483  -0.466455
  0.278931  -0.433368
  0.314615  -0.429584
   0.35378  -0.402511
  0.392945  -0.391973
   0.43211  -0.373593
  0.471275  -0.307125
   0.51044  -0.278978
  0.549604  -0.284957
  0.588769  -0.261643
  0.627934  -0.234421
  0.667099  -0.220501
  0.706264  -0.189528
  0.745429  -0.167387
  0.784593  -0.138219
  0.823758  -0.102006
  0.862923 -0.0819393
  0.902088 -0.0581101
  0.941253  -0.036813
  0.980418  -0.018168
   1.01958 0.00832948
   1.05875   0.053219
   1.09791  0.0942688
   1.13708   0.115669
   1.17624   0.145953
   1.21541   0.159417
   1.25457   0.153393
   1.29374   0.177135
    1.3329   0.203335
   1.37207   0.213661
   1.41123   0.241854
    1.4504   0.256654
   1.48956   0.265199
   1.52873    0.29953
   1.56789   0.333391
   1.60706   0.387477
   1.64622   0.450213
   1.68539   0.472125
   1.72107   0.474771
   1.75152   0.464155
   1.77865   0.476247
   1.80281   0.561582
   1.82434   0.674666
   1.84353   0.749441
   1.86062   0.791333
   1.87584   0.855196
   1.88941   0.946531
    1.9015    1.06085
   1.91226    1.21188
   1.92186     1.4114
    1.9304    1.65202
   1.93802    1.92897
    1.9448    2.28071
   1.95084     2.7522
   1.95623    3.37097
   1.96103    4.14482
    1.9653    5.08015
   1.96911    6.21526
    1.9725    7.59579
   1.97552     9.2538
   1.97822    11.2127
   1.98061    13.4889
   1.98275    16.0805
   1.98466    18.9457
   1.98635    21.9927
   1.98786    25.0906
   1.98921    28.0953
   1.99041    30.8777
   1.99148     33.343
   1.99243    35.4371
   1.99333    37.2303
   1.99421    38.7922
    1.9951    40.0837
     1.996    41.0767
   1.99689     41.773
   1.99777    42.2052
   1.99867    42.4325
   1.99956    42.5309
         2     42.558
