# Region type : patch bottomWall
# Faces       : 800000
# Area        : 4.800000e+01
# Scale factor: 1.000000e+00
# Time        	areaAverage(yPlus)
0.00267081    	7.861358e-01
0.006074362   	6.204057e-01
0.01302707    	5.204051e-01
0.02640324    	4.482265e-01
0.041658      	4.084250e-01
0.05692411    	3.834848e-01
0.07229658    	3.655077e-01
0.08783568    	3.515420e-01
0.1034877     	3.402292e-01
0.1192974     	3.307435e-01
0.1352206     	3.226252e-01
0.1509033     	3.156966e-01
0.1662663     	3.097136e-01
0.1815441     	3.043991e-01
0.196919      	2.995767e-01
0.21255       	2.951255e-01
0.2278598     	2.911394e-01
0.2428348     	2.875472e-01
0.2576104     	2.842609e-01
0.27228       	2.812209e-01
0.2869388     	2.783794e-01
0.3016783     	2.756984e-01
0.3166054     	2.731448e-01
0.3318179     	2.706928e-01
0.3473332     	2.683334e-01
0.3628877     	2.660982e-01
0.3784968     	2.639745e-01
0.3941886     	2.619496e-01
0.4099858     	2.600137e-01
0.4259057     	2.581585e-01
0.4418879     	2.563855e-01
0.4578656     	2.546963e-01
0.4738365     	2.530852e-01
0.4898029     	2.515467e-01
0.5057626     	2.500766e-01
0.5217177     	2.486703e-01
0.537666      	2.473245e-01
0.5536075     	2.460356e-01
0.5695443     	2.448003e-01
0.5854766     	2.436160e-01
0.601402      	2.424802e-01
0.6173205     	2.413906e-01
0.6332136     	2.403461e-01
0.6489896     	2.393504e-01
0.6645981     	2.384038e-01
0.6800508     	2.375029e-01
0.6953503     	2.366452e-01
0.7104756     	2.358294e-01
0.7254301     	2.350533e-01
0.740221      	2.343144e-01
0.7548575     	2.336105e-01
0.7693461     	2.329398e-01
0.7836951     	2.323003e-01
0.7979163     	2.316903e-01
0.8120192     	2.311083e-01
0.8260239     	2.305523e-01
0.8399317     	2.300215e-01
0.8537031     	2.295165e-01
0.8673351     	2.290365e-01
0.8808335     	2.285804e-01
0.8942057     	2.281471e-01
0.9074725     	2.277355e-01
0.9206436     	2.273446e-01
0.9336967     	2.269745e-01
0.9466517     	2.266242e-01
0.9595244     	2.262927e-01
0.9723269     	2.259796e-01
0.9850775     	2.256841e-01
0.9977894     	2.254057e-01
1.010477      	2.251439e-01
1.023158      	2.248985e-01
1.035846      	2.246691e-01
1.048531      	2.244560e-01
1.061204      	2.242594e-01
1.073875      	2.240790e-01
1.086563      	2.239147e-01
1.099276      	2.237664e-01
1.112021      	2.236343e-01
1.124818      	2.235181e-01
1.137578      	2.234186e-01
1.150245      	2.233359e-01
1.162812      	2.232695e-01
1.175281      	2.232189e-01
1.187654      	2.231833e-01
1.199917      	2.231622e-01
1.212018      	2.231548e-01
1.223962      	2.231602e-01
1.235756      	2.231774e-01
1.247403      	2.232056e-01
1.258913      	2.232437e-01
1.270293      	2.232910e-01
1.28155       	2.233466e-01
1.292696      	2.234095e-01
1.303741      	2.234791e-01
1.314691      	2.235546e-01
1.325553      	2.236351e-01
1.336339      	2.237201e-01
1.347063      	2.238089e-01
1.357739      	2.239009e-01
1.36837       	2.239955e-01
1.378971      	2.240921e-01
1.389565      	2.241905e-01
1.400156      	2.242900e-01
1.410752      	2.243902e-01
1.42135       	2.244906e-01
1.431931      	2.245905e-01
1.442507      	2.246897e-01
1.453096      	2.247878e-01
1.463706      	2.248848e-01
1.474345      	2.249802e-01
1.485004      	2.250739e-01
1.495658      	2.251652e-01
1.506288      	2.252539e-01
1.516857      	2.253396e-01
1.527363      	2.254221e-01
1.537814      	2.255016e-01
1.548214      	2.255781e-01
1.558571      	2.256518e-01
1.568897      	2.257227e-01
1.579193      	2.257911e-01
1.589469      	2.258571e-01
1.599726      	2.259208e-01
1.609948      	2.259823e-01
1.620148      	2.260418e-01
1.630339      	2.260998e-01
1.640536      	2.261565e-01
1.650753      	2.262122e-01
1.661003      	2.262673e-01
1.671288      	2.263221e-01
1.681618      	2.263769e-01
1.69197       	2.264319e-01
1.702332      	2.264874e-01
1.712703      	2.265438e-01
1.723088      	2.266014e-01
1.733476      	2.266606e-01
1.743857      	2.267216e-01
1.754245      	2.267848e-01
1.764656      	2.268507e-01
1.7751        	2.269197e-01
1.785569      	2.269919e-01
1.796061      	2.270678e-01
1.80658       	2.271473e-01
1.817036      	2.272302e-01
1.82725       	2.273149e-01
1.837235      	2.274014e-01
1.846997      	2.274897e-01
1.856561      	2.275800e-01
1.865936      	2.276724e-01
1.875065      	2.277661e-01
1.883943      	2.278608e-01
1.892594      	2.279567e-01
1.901063      	2.280541e-01
1.909325      	2.281527e-01
1.917377      	2.282520e-01
1.925248      	2.283524e-01
1.932975      	2.284540e-01
1.940575      	2.285571e-01
1.948073      	2.286617e-01
1.955451      	2.287675e-01
1.962724      	2.288745e-01
1.969916      	2.289829e-01
1.976974      	2.290919e-01
1.983923      	2.292017e-01
1.990783      	2.293123e-01
1.997586      	2.294244e-01
2.004356      	2.295381e-01
2.011114      	2.296538e-01
2.017836      	2.297711e-01
2.024494      	2.298893e-01
2.031114      	2.300088e-01
2.037703      	2.301295e-01
2.04427       	2.302515e-01
2.050823      	2.303749e-01
2.057377      	2.304999e-01
2.063942      	2.306266e-01
2.070526      	2.307552e-01
2.077056      	2.308842e-01
2.083544      	2.310136e-01
2.090003      	2.311436e-01
2.096449      	2.312747e-01
2.102909      	2.314072e-01
2.109396      	2.315415e-01
2.115883      	2.316769e-01
2.122346      	2.318128e-01
2.12881       	2.319498e-01
2.135277      	2.320878e-01
2.141761      	2.322270e-01
2.148278      	2.323677e-01
2.154849      	2.325104e-01
2.161488      	2.326551e-01
2.168136      	2.328008e-01
2.174735      	2.329458e-01
2.181301      	2.330906e-01
2.187873      	2.332359e-01
2.194482      	2.333824e-01
2.201155      	2.335306e-01
2.207905      	2.336808e-01
2.214657      	2.338312e-01
2.221407      	2.339817e-01
2.228174      	2.341327e-01
2.23498       	2.342845e-01
2.241841      	2.344376e-01
2.248763      	2.345920e-01
2.255745      	2.347476e-01
2.26269       	2.349021e-01
2.269601      	2.350554e-01
2.276504      	2.352080e-01
2.283425      	2.353606e-01
2.290395      	2.355132e-01
2.297411      	2.356658e-01
2.304414      	2.358166e-01
2.311411      	2.359658e-01
2.318417      	2.361133e-01
2.325448      	2.362595e-01
2.33251       	2.364043e-01
2.339575      	2.365472e-01
2.346658      	2.366886e-01
2.353777      	2.368289e-01
2.360935      	2.369680e-01
2.368085      	2.371053e-01
2.375198      	2.372400e-01
2.382294      	2.373725e-01
2.389385      	2.375029e-01
2.396508      	2.376320e-01
2.403689      	2.377597e-01
2.410864      	2.378847e-01
2.418023      	2.380072e-01
2.425191      	2.381268e-01
2.432379      	2.382440e-01
2.439561      	2.383583e-01
2.446744      	2.384692e-01
2.453952      	2.385778e-01
2.461194      	2.386837e-01
2.468432      	2.387869e-01
2.475684      	2.388873e-01
2.482982      	2.389857e-01
2.490185      	2.390802e-01
2.497096      	2.391680e-01
2.503834      	2.392511e-01
2.510366      	2.393292e-01
2.516678      	2.394023e-01
2.522907      	2.394724e-01
2.529059      	2.395391e-01
2.535196      	2.396036e-01
2.541288      	2.396658e-01
2.54734       	2.397254e-01
2.553369      	2.397826e-01
2.559365      	2.398376e-01
2.565453      	2.398915e-01
2.57174       	2.399451e-01
2.578083      	2.399969e-01
2.584358      	2.400459e-01
2.59063       	2.400926e-01
2.596781      	2.401362e-01
2.602897      	2.401775e-01
2.609062      	2.402172e-01
2.61517       	2.402546e-01
2.621317      	2.402902e-01
2.627434      	2.403238e-01
2.633408      	2.403547e-01
2.639222      	2.403828e-01
2.645024      	2.404091e-01
2.650843      	2.404340e-01
2.656627      	2.404571e-01
2.66252       	2.404790e-01
2.668569      	2.405001e-01
2.674726      	2.405200e-01
2.680715      	2.405377e-01
2.686457      	2.405530e-01
2.692023      	2.405663e-01
2.697482      	2.405783e-01
2.702776      	2.405889e-01
2.707868      	2.405978e-01
2.712813      	2.406057e-01
2.71766       	2.406126e-01
2.72246       	2.406187e-01
2.727271      	2.406240e-01
2.732087      	2.406287e-01
2.736748      	2.406325e-01
2.741291      	2.406356e-01
2.745758      	2.406379e-01
2.750156      	2.406397e-01
2.754418      	2.406408e-01
2.758587      	2.406414e-01
2.762702      	2.406414e-01
2.766799      	2.406411e-01
2.770908      	2.406403e-01
2.775069      	2.406390e-01
2.779325      	2.406375e-01
2.78363       	2.406353e-01
2.787849      	2.406329e-01
2.792015      	2.406299e-01
2.796169      	2.406265e-01
2.800353      	2.406228e-01
2.804535      	2.406187e-01
2.808687      	2.406141e-01
2.812838      	2.406091e-01
2.817018      	2.406037e-01
2.821262      	2.405977e-01
2.825616      	2.405911e-01
2.830126      	2.405839e-01
2.834645      	2.405760e-01
2.839157      	2.405674e-01
2.843714      	2.405580e-01
2.848372      	2.405476e-01
2.853066      	2.405363e-01
2.857753      	2.405239e-01
2.862476      	2.405104e-01
2.867284      	2.404956e-01
2.872242      	2.404791e-01
2.87739       	2.404607e-01
2.88256       	2.404408e-01
2.887786      	2.404190e-01
2.893152      	2.403948e-01
2.89872       	2.403679e-01
2.904274      	2.403391e-01
2.909872      	2.403075e-01
2.915637      	2.402731e-01
2.921433      	2.402362e-01
2.92709       	2.401977e-01
2.932661      	2.401576e-01
2.938187      	2.401155e-01
2.943638      	2.400718e-01
2.948947      	2.400276e-01
2.954158      	2.399821e-01
2.959313      	2.399352e-01
2.964442      	2.398871e-01
2.969445      	2.398387e-01
2.974349      	2.397896e-01
2.979224      	2.397396e-01
2.984125      	2.396880e-01
2.989103      	2.396345e-01
2.994088      	2.395800e-01
2.999053      	2.395245e-01
3.003932      	2.394691e-01
3.00877       	2.394137e-01
3.013632      	2.393572e-01
3.018471      	2.393003e-01
3.023209      	2.392444e-01
3.027969      	2.391880e-01
3.032849      	2.391302e-01
3.03785       	2.390716e-01
3.042757      	2.390137e-01
3.047573      	2.389572e-01
3.052333      	2.389021e-01
3.057066      	2.388475e-01
3.061788      	2.387937e-01
3.06649       	2.387408e-01
3.071153      	2.386885e-01
3.075766      	2.386376e-01
3.080331      	2.385877e-01
3.084875      	2.385387e-01
3.089298      	2.384915e-01
3.093635      	2.384457e-01
3.097925      	2.384007e-01
3.102184      	2.383565e-01
3.106419      	2.383129e-01
3.110634      	2.382700e-01
3.114848      	2.382275e-01
3.119093      	2.381852e-01
3.123287      	2.381438e-01
3.127417      	2.381031e-01
3.131513      	2.380630e-01
3.135597      	2.380236e-01
3.139689      	2.379844e-01
3.14382       	2.379452e-01
3.148023      	2.379056e-01
3.152346      	2.378652e-01
3.156655      	2.378252e-01
3.160881      	2.377861e-01
3.165055      	2.377479e-01
3.169205      	2.377106e-01
3.173363      	2.376733e-01
3.177545      	2.376361e-01
3.181738      	2.375993e-01
3.186006      	2.375622e-01
3.190366      	2.375250e-01
3.194686      	2.374887e-01
3.199023      	2.374531e-01
3.203447      	2.374174e-01
3.207861      	2.373823e-01
3.21223       	2.373486e-01
3.216599      	2.373154e-01
3.221025      	2.372826e-01
3.225579      	2.372497e-01
3.230198      	2.372176e-01
3.234858      	2.371864e-01
3.239485      	2.371563e-01
3.244041      	2.371276e-01
3.248596      	2.371001e-01
3.253231      	2.370735e-01
3.258036      	2.370471e-01
3.262926      	2.370218e-01
3.267881      	2.369978e-01
3.272944      	2.369747e-01
3.278035      	2.369530e-01
3.283188      	2.369332e-01
3.288447      	2.369147e-01
3.293662      	2.368983e-01
3.299029      	2.368831e-01
3.304341      	2.368697e-01
3.309648      	2.368584e-01
3.315125      	2.368487e-01
3.320541      	2.368410e-01
3.326044      	2.368348e-01
3.331475      	2.368308e-01
3.336831      	2.368286e-01
3.342064      	2.368288e-01
3.347131      	2.368315e-01
3.352169      	2.368363e-01
3.357154      	2.368431e-01
3.362031      	2.368517e-01
3.366984      	2.368622e-01
3.371886      	2.368741e-01
3.376814      	2.368875e-01
3.381922      	2.369030e-01
3.387031      	2.369197e-01
3.392339      	2.369384e-01
3.397646      	2.369581e-01
3.402974      	2.369784e-01
3.408297      	2.369999e-01
3.413502      	2.370219e-01
3.418682      	2.370439e-01
3.423877      	2.370663e-01
3.428921      	2.370883e-01
3.433983      	2.371104e-01
3.43898       	2.371322e-01
3.443908      	2.371537e-01
3.448886      	2.371753e-01
3.453761      	2.371963e-01
3.458663      	2.372175e-01
3.463546      	2.372386e-01
3.468378      	2.372589e-01
3.473272      	2.372795e-01
3.478094      	2.372999e-01
3.482944      	2.373200e-01
3.487797      	2.373397e-01
3.492601      	2.373591e-01
3.497479      	2.373791e-01
3.502299      	2.373987e-01
3.507127      	2.374179e-01
3.51205       	2.374376e-01
3.516923      	2.374570e-01
3.521854      	2.374769e-01
3.526847      	2.374966e-01
3.531936      	2.375169e-01
3.537078      	2.375375e-01
3.542144      	2.375580e-01
3.547204      	2.375783e-01
3.552171      	2.375982e-01
3.557071      	2.376181e-01
3.561955      	2.376379e-01
3.566672      	2.376576e-01
3.571384      	2.376773e-01
3.576138      	2.376978e-01
3.580786      	2.377177e-01
3.585457      	2.377382e-01
3.590263      	2.377598e-01
3.595037      	2.377813e-01
3.599893      	2.378033e-01
3.605046      	2.378266e-01
3.610284      	2.378511e-01
3.615521      	2.378757e-01
3.620624      	2.378999e-01
3.625743      	2.379242e-01
3.630841      	2.379487e-01
3.635871      	2.379734e-01
3.640929      	2.379986e-01
3.645998      	2.380240e-01
3.650993      	2.380496e-01
3.655959      	2.380758e-01
3.660924      	2.381025e-01
3.665829      	2.381301e-01
3.670747      	2.381581e-01
3.675623      	2.381866e-01
3.680465      	2.382157e-01
3.685337      	2.382457e-01
3.690149      	2.382759e-01
3.694992      	2.383063e-01
3.699824      	2.383367e-01
3.704638      	2.383669e-01
3.709452      	2.383972e-01
3.714293      	2.384277e-01
3.719084      	2.384576e-01
3.723923      	2.384875e-01
3.728766      	2.385172e-01
3.733647      	2.385472e-01
3.738571      	2.385773e-01
3.743524      	2.386070e-01
3.748567      	2.386367e-01
3.753569      	2.386660e-01
3.758589      	2.386950e-01
3.763549      	2.387233e-01
3.768519      	2.387511e-01
3.773535      	2.387781e-01
3.778535      	2.388043e-01
3.783601      	2.388306e-01
3.78863       	2.388557e-01
3.793657      	2.388795e-01
3.798648      	2.389020e-01
3.803677      	2.389241e-01
3.808657      	2.389446e-01
3.813631      	2.389639e-01
3.818612      	2.389823e-01
3.823556      	2.389993e-01
3.828457      	2.390148e-01
3.833371      	2.390295e-01
3.838247      	2.390430e-01
3.843116      	2.390552e-01
3.848022      	2.390663e-01
3.852874      	2.390761e-01
3.857783      	2.390851e-01
3.862692      	2.390932e-01
3.867617      	2.390999e-01
3.872628      	2.391057e-01
3.877658      	2.391109e-01
3.882703      	2.391149e-01
3.887716      	2.391175e-01
3.892715      	2.391191e-01
3.897773      	2.391200e-01
3.902768      	2.391200e-01
3.907837      	2.391186e-01
3.91294       	2.391160e-01
3.918057      	2.391126e-01
3.923175      	2.391084e-01
3.928345      	2.391032e-01
3.933634      	2.390967e-01
3.938925      	2.390894e-01
3.944338      	2.390809e-01
3.949895      	2.390717e-01
3.955422      	2.390616e-01
3.9609        	2.390509e-01
3.966331      	2.390393e-01
3.971681      	2.390273e-01
3.977038      	2.390145e-01
3.982319      	2.390014e-01
3.987586      	2.389876e-01
3.992851      	2.389732e-01
3.998081      	2.389584e-01
4.003297      	2.389429e-01
4.008456      	2.389269e-01
4.013614      	2.389104e-01
4.018759      	2.388933e-01
4.023824      	2.388761e-01
4.02889       	2.388582e-01
4.033978      	2.388397e-01
4.038988      	2.388209e-01
4.044036      	2.388015e-01
4.049127      	2.387815e-01
4.054156      	2.387614e-01
4.059316      	2.387406e-01
4.064488      	2.387195e-01
4.069681      	2.386982e-01
4.074961      	2.386764e-01
4.080182      	2.386550e-01
4.085486      	2.386336e-01
4.090772      	2.386126e-01
4.096115      	2.385921e-01
4.101564      	2.385723e-01
4.107045      	2.385538e-01
4.112583      	2.385367e-01
4.118246      	2.385211e-01
4.123951      	2.385084e-01
4.129463      	2.384991e-01
4.134639      	2.384933e-01
4.139733      	2.384900e-01
4.144718      	2.384900e-01
4.14946       	2.384927e-01
4.154153      	2.384980e-01
4.158861      	2.385060e-01
4.163365      	2.385154e-01
4.167856      	2.385266e-01
4.172475      	2.385399e-01
4.176912      	2.385548e-01
4.18143       	2.385717e-01
4.186127      	2.385912e-01
4.190699      	2.386122e-01
4.195511      	2.386363e-01
4.200462      	2.386634e-01
4.205432      	2.386929e-01
4.210446      	2.387250e-01
4.215464      	2.387592e-01
4.220459      	2.387951e-01
4.225422      	2.388325e-01
4.230365      	2.388710e-01
4.235333      	2.389109e-01
4.240249      	2.389515e-01
4.245066      	2.389919e-01
4.24994       	2.390330e-01
4.254822      	2.390747e-01
4.259605      	2.391158e-01
4.264447      	2.391572e-01
4.269398      	2.391994e-01
4.274285      	2.392408e-01
4.279242      	2.392824e-01
4.284389      	2.393250e-01
4.289524      	2.393672e-01
4.29478       	2.394098e-01
4.300299      	2.394539e-01
4.305862      	2.394979e-01
4.311522      	2.395418e-01
4.317108      	2.395842e-01
4.32258       	2.396247e-01
4.327989      	2.396639e-01
4.333345      	2.397019e-01
4.338695      	2.397385e-01
4.344077      	2.397749e-01
4.349541      	2.398110e-01
4.354969      	2.398460e-01
4.360332      	2.398798e-01
4.365622      	2.399122e-01
4.370917      	2.399434e-01
4.376193      	2.399738e-01
4.381545      	2.400039e-01
4.387009      	2.400335e-01
4.39259       	2.400629e-01
4.398216      	2.400916e-01
4.403842      	2.401196e-01
4.409416      	2.401462e-01
4.414967      	2.401712e-01
4.420524      	2.401951e-01
4.426109      	2.402185e-01
4.431593      	2.402404e-01
4.436986      	2.402607e-01
4.44233       	2.402801e-01
4.447709      	2.402990e-01
4.453034      	2.403168e-01
4.458157      	2.403332e-01
4.463208      	2.403484e-01
4.468153      	2.403626e-01
4.473002      	2.403757e-01
4.477898      	2.403882e-01
4.482727      	2.403998e-01
4.487492      	2.404107e-01
4.49223       	2.404207e-01
4.496929      	2.404300e-01
4.501463      	2.404382e-01
4.505867      	2.404454e-01
4.510177      	2.404518e-01
4.514395      	2.404574e-01
4.518507      	2.404619e-01
4.522572      	2.404655e-01
4.526632      	2.404686e-01
4.530696      	2.404712e-01
4.53473       	2.404731e-01
4.538756      	2.404741e-01
4.542814      	2.404745e-01
4.546936      	2.404744e-01
4.550952      	2.404737e-01
4.554857      	2.404721e-01
4.55877       	2.404699e-01
4.562648      	2.404671e-01
4.566472      	2.404637e-01
4.570299      	2.404595e-01
4.574129      	2.404550e-01
4.577964      	2.404501e-01
4.581846      	2.404446e-01
4.585741      	2.404385e-01
4.589649      	2.404321e-01
4.593627      	2.404255e-01
4.597657      	2.404185e-01
4.601568      	2.404114e-01
4.605416      	2.404042e-01
4.609327      	2.403965e-01
4.613172      	2.403889e-01
4.61699       	2.403810e-01
4.620883      	2.403729e-01
4.624881      	2.403643e-01
4.628885      	2.403558e-01
4.632879      	2.403472e-01
4.636889      	2.403382e-01
4.640931      	2.403290e-01
4.645039      	2.403195e-01
4.649219      	2.403099e-01
4.653383      	2.403003e-01
4.657609      	2.402904e-01
4.66199       	2.402800e-01
4.666387      	2.402695e-01
4.670749      	2.402593e-01
4.675063      	2.402490e-01
4.679474      	2.402384e-01
4.683916      	2.402277e-01
4.68833       	2.402171e-01
4.692817      	2.402064e-01
4.697413      	2.401956e-01
4.70204       	2.401848e-01
4.706635      	2.401742e-01
4.711187      	2.401635e-01
4.715709      	2.401530e-01
4.720247      	2.401426e-01
4.724654      	2.401328e-01
4.729019      	2.401227e-01
4.733415      	2.401129e-01
4.737655      	2.401035e-01
4.741832      	2.400943e-01
4.746085      	2.400849e-01
4.750242      	2.400760e-01
4.754325      	2.400673e-01
4.758516      	2.400585e-01
4.762683      	2.400501e-01
4.766797      	2.400418e-01
4.771063      	2.400332e-01
4.775306      	2.400251e-01
4.779556      	2.400172e-01
4.783986      	2.400090e-01
4.788352      	2.400012e-01
4.792827      	2.399932e-01
4.797378      	2.399856e-01
4.801877      	2.399781e-01
4.806335      	2.399710e-01
4.810705      	2.399639e-01
4.815175      	2.399567e-01
4.819609      	2.399500e-01
4.824009      	2.399434e-01
4.828404      	2.399366e-01
4.832634      	2.399304e-01
4.836781      	2.399244e-01
4.840967      	2.399182e-01
4.845183      	2.399119e-01
4.849198      	2.399062e-01
4.853104      	2.399007e-01
4.857016      	2.398950e-01
4.860892      	2.398893e-01
4.864814      	2.398835e-01
4.868685      	2.398782e-01
4.87245       	2.398731e-01
4.876215      	2.398678e-01
4.879989      	2.398625e-01
4.883665      	2.398575e-01
4.887352      	2.398522e-01
4.891211      	2.398465e-01
4.89501       	2.398414e-01
4.8986        	2.398365e-01
4.902068      	2.398317e-01
4.905551      	2.398265e-01
4.909186      	2.398213e-01
4.913135      	2.398159e-01
4.917111      	2.398111e-01
4.920906      	2.398067e-01
4.924695      	2.398023e-01
4.928629      	2.397982e-01
4.932851      	2.397942e-01
4.937079      	2.397909e-01
4.941343      	2.397877e-01
4.945695      	2.397849e-01
4.949858      	2.397830e-01
4.953874      	2.397815e-01
4.95788       	2.397799e-01
4.961998      	2.397787e-01
4.966021      	2.397782e-01
4.969898      	2.397781e-01
4.973661      	2.397784e-01
4.977472      	2.397790e-01
4.981418      	2.397801e-01
4.985253      	2.397823e-01
4.98894       	2.397849e-01
4.992626      	2.397878e-01
4.996313      	2.397915e-01
5             	2.397962e-01
5.003758      	2.398016e-01
5.007387      	2.398079e-01
5.011004      	2.398148e-01
5.014738      	2.398224e-01
5.018682      	2.398317e-01
5.022529      	2.398422e-01
5.026311      	2.398533e-01
5.030171      	2.398654e-01
5.034255      	2.398790e-01
5.0385        	2.398946e-01
5.042639      	2.399111e-01
5.046839      	2.399286e-01
5.05127       	2.399479e-01
5.055995      	2.399697e-01
5.060641      	2.399924e-01
5.065366      	2.400164e-01
5.070421      	2.400428e-01
5.075772      	2.400721e-01
5.081051      	2.401022e-01
5.086586      	2.401345e-01
5.092306      	2.401689e-01
5.097931      	2.402031e-01
5.103464      	2.402376e-01
5.108767      	2.402711e-01
5.113964      	2.403038e-01
5.119161      	2.403365e-01
5.124214      	2.403688e-01
5.129198      	2.404006e-01
5.134247      	2.404331e-01
5.139317      	2.404656e-01
5.144357      	2.404977e-01
5.149504      	2.405303e-01
5.154884      	2.405647e-01
5.160331      	2.405992e-01
5.165822      	2.406337e-01
5.171201      	2.406671e-01
5.17646       	2.406991e-01
5.181559      	2.407298e-01
5.186596      	2.407595e-01
5.191578      	2.407880e-01
5.196429      	2.408153e-01
5.201263      	2.408419e-01
5.206185      	2.408688e-01
5.211086      	2.408944e-01
5.216011      	2.409194e-01
5.221107      	2.409448e-01
5.226403      	2.409710e-01
5.231802      	2.409963e-01
5.237241      	2.410208e-01
5.242588      	2.410446e-01
5.247887      	2.410671e-01
5.253255      	2.410889e-01
5.258591      	2.411096e-01
5.263908      	2.411295e-01
5.269243      	2.411484e-01
5.274554      	2.411661e-01
5.279961      	2.411830e-01
5.285423      	2.411993e-01
5.290918      	2.412145e-01
5.296511      	2.412291e-01
5.302169      	2.412428e-01
5.307768      	2.412554e-01
5.313279      	2.412668e-01
5.318785      	2.412770e-01
5.324257      	2.412861e-01
5.3297        	2.412940e-01
5.335226      	2.413012e-01
5.34079       	2.413072e-01
5.346378      	2.413121e-01
5.352084      	2.413157e-01
5.35771       	2.413184e-01
5.363292      	2.413196e-01
5.368925      	2.413190e-01
5.374579      	2.413175e-01
5.380207      	2.413148e-01
5.385761      	2.413103e-01
5.39137       	2.413046e-01
5.396857      	2.412979e-01
5.402344      	2.412894e-01
5.4079        	2.412795e-01
5.413381      	2.412687e-01
5.418959      	2.412558e-01
5.424488      	2.412414e-01
5.429953      	2.412262e-01
5.435261      	2.412098e-01
5.440494      	2.411920e-01
5.445703      	2.411728e-01
5.450796      	2.411528e-01
5.455793      	2.411320e-01
5.460754      	2.411101e-01
5.465699      	2.410869e-01
5.470539      	2.410633e-01
5.475384      	2.410385e-01
5.480203      	2.410129e-01
5.484943      	2.409868e-01
5.489704      	2.409599e-01
5.494349      	2.409328e-01
5.498932      	2.409051e-01
5.503562      	2.408766e-01
5.508057      	2.408486e-01
5.512463      	2.408205e-01
5.516908      	2.407915e-01
5.521321      	2.407625e-01
5.525684      	2.407334e-01
5.530042      	2.407039e-01
5.534402      	2.406742e-01
5.538793      	2.406441e-01
5.543283      	2.406131e-01
5.547797      	2.405817e-01
5.55244       	2.405491e-01
5.557219      	2.405155e-01
5.561995      	2.404818e-01
5.566868      	2.404473e-01
5.57168       	2.404130e-01
5.576409      	2.403791e-01
5.581218      	2.403445e-01
5.585981      	2.403101e-01
5.590602      	2.402765e-01
5.59518       	2.402429e-01
5.599858      	2.402086e-01
5.604628      	2.401735e-01
5.609284      	2.401392e-01
5.613976      	2.401045e-01
5.618802      	2.400687e-01
5.623521      	2.400338e-01
5.62809       	2.400001e-01
5.632694      	2.399658e-01
5.637332      	2.399314e-01
5.641857      	2.398980e-01
5.646472      	2.398639e-01
5.651299      	2.398284e-01
5.65607       	2.397937e-01
5.661041      	2.397577e-01
5.666446      	2.397192e-01
5.671949      	2.396805e-01
5.677618      	2.396412e-01
5.683416      	2.396018e-01
5.689073      	2.395640e-01
5.694659      	2.395269e-01
5.700373      	2.394896e-01
5.706192      	2.394523e-01
5.71205       	2.394158e-01
5.717775      	2.393805e-01
5.723598      	2.393452e-01
5.729336      	2.393111e-01
5.735077      	2.392775e-01
5.740906      	2.392443e-01
5.746633      	2.392121e-01
5.752464      	2.391798e-01
5.758191      	2.391490e-01
5.763907      	2.391185e-01
5.769636      	2.390887e-01
5.775429      	2.390591e-01
5.781223      	2.390301e-01
5.787098      	2.390012e-01
5.792903      	2.389733e-01
5.798662      	2.389461e-01
5.804374      	2.389196e-01
5.81011       	2.388933e-01
5.815814      	2.388677e-01
5.821594      	2.388424e-01
5.827405      	2.388176e-01
5.833194      	2.387934e-01
5.83907       	2.387694e-01
5.844792      	2.387469e-01
5.850519      	2.387249e-01
5.85645       	2.387028e-01
5.862309      	2.386820e-01
5.868109      	2.386621e-01
5.87382       	2.386431e-01
5.879602      	2.386251e-01
5.885425      	2.386079e-01
5.891365      	2.385914e-01
5.897456      	2.385759e-01
5.903529      	2.385617e-01
5.909485      	2.385490e-01
5.915428      	2.385376e-01
5.921339      	2.385273e-01
5.927154      	2.385185e-01
5.932711      	2.385110e-01
5.938041      	2.385046e-01
5.943129      	2.384994e-01
5.948084      	2.384951e-01
5.952932      	2.384916e-01
5.957636      	2.384886e-01
5.962307      	2.384864e-01
5.966969      	2.384851e-01
5.971534      	2.384845e-01
5.976152      	2.384843e-01
5.980849      	2.384849e-01
5.985478      	2.384859e-01
5.990226      	2.384877e-01
5.995144      	2.384905e-01
6.00005       	2.384941e-01
6.005114      	2.384982e-01
6.010208      	2.385031e-01
6.015325      	2.385091e-01
6.020373      	2.385156e-01
6.025449      	2.385229e-01
6.030384      	2.385304e-01
6.035193      	2.385381e-01
6.039798      	2.385464e-01
6.044217      	2.385552e-01
6.048517      	2.385639e-01
6.052747      	2.385727e-01
6.056822      	2.385816e-01
6.060775      	2.385906e-01
6.06467       	2.386003e-01
6.068552      	2.386104e-01
6.072335      	2.386206e-01
6.076081      	2.386309e-01
6.079883      	2.386418e-01
6.083753      	2.386536e-01
6.087652      	2.386661e-01
6.091653      	2.386794e-01
6.095584      	2.386934e-01
6.099349      	2.387074e-01
6.102972      	2.387214e-01
6.106534      	2.387355e-01
6.110102      	2.387501e-01
6.113587      	2.387650e-01
6.117041      	2.387802e-01
6.120542      	2.387963e-01
6.124083      	2.388131e-01
6.127607      	2.388304e-01
6.131182      	2.388485e-01
6.134874      	2.388678e-01
6.138615      	2.388882e-01
6.14242       	2.389097e-01
6.146373      	2.389327e-01
6.150513      	2.389579e-01
6.15476       	2.389847e-01
6.159158      	2.390134e-01
6.163498      	2.390425e-01
6.167733      	2.390720e-01
6.171864      	2.391018e-01
6.175946      	2.391316e-01
6.180047      	2.391621e-01
6.184251      	2.391941e-01
6.188528      	2.392277e-01
6.192818      	2.392620e-01
6.197185      	2.392977e-01
6.201531      	2.393339e-01
6.205807      	2.393704e-01
6.210069      	2.394072e-01
6.214251      	2.394439e-01
6.218374      	2.394803e-01
6.222499      	2.395173e-01
6.226635      	2.395548e-01
6.230716      	2.395923e-01
6.234795      	2.396302e-01
6.238929      	2.396689e-01
6.243069      	2.397080e-01
6.247201      	2.397473e-01
6.251331      	2.397871e-01
6.255563      	2.398282e-01
6.259742      	2.398692e-01
6.264035      	2.399113e-01
6.268487      	2.399554e-01
6.272982      	2.400002e-01
6.277541      	2.400461e-01
6.282011      	2.400914e-01
6.286375      	2.401356e-01
6.290688      	2.401792e-01
6.294981      	2.402225e-01
6.299218      	2.402654e-01
6.303457      	2.403083e-01
6.307805      	2.403526e-01
6.31218       	2.403971e-01
6.316619      	2.404420e-01
6.320976      	2.404865e-01
6.325159      	2.405294e-01
6.329319      	2.405717e-01
6.333582      	2.406148e-01
6.33775       	2.406571e-01
6.341864      	2.406987e-01
6.346065      	2.407410e-01
6.350415      	2.407847e-01
6.354714      	2.408278e-01
6.359106      	2.408714e-01
6.363446      	2.409145e-01
6.367547      	2.409552e-01
6.371579      	2.409948e-01
6.375689      	2.410346e-01
6.379699      	2.410732e-01
6.383569      	2.411103e-01
6.387448      	2.411470e-01
6.39154       	2.411854e-01
6.395579      	2.412235e-01
6.399557      	2.412608e-01
6.403719      	2.412992e-01
6.408131      	2.413400e-01
6.412432      	2.413798e-01
6.416861      	2.414200e-01
6.42127       	2.414601e-01
6.425453      	2.414980e-01
6.429528      	2.415343e-01
6.433642      	2.415702e-01
6.437841      	2.416067e-01
6.44193       	2.416422e-01
6.445892      	2.416763e-01
6.44992       	2.417102e-01
6.454132      	2.417455e-01
6.458156      	2.417792e-01
6.462078      	2.418118e-01
6.466098      	2.418445e-01
6.470412      	2.418796e-01