         0 1.60828e-05
 0.0002225 1.60828e-05
 0.0006675 0.000206595
 0.0011125 0.000787797
 0.0015575 0.00187645
 0.0020025 0.00351522
 0.0024475   0.005685
 0.0028925 0.00834523
 0.0033375  0.0114161
 0.0037825  0.0148312
 0.0042275  0.0184924
 0.0046725  0.0223383
 0.0051175  0.0262744
 0.0055625  0.0302596
 0.0060075  0.0342109
 0.0064525  0.0381122
 0.0068975  0.0417691
 0.0073476  0.0453755
0.00781612  0.0492189
0.00831203  0.0529292
0.00883694  0.0565556
0.00939255  0.0601468
0.00998065  0.0635651
 0.0106031  0.0668438
  0.011262  0.0698561
 0.0119594  0.0726166
 0.0126977  0.0750166
  0.013479  0.0770571
 0.0143061  0.0786516
 0.0151815   0.079797
 0.0161082  0.0804315
  0.017089  0.0805576
 0.0181271  0.0801404
  0.019226  0.0791949
 0.0203891  0.0777137
 0.0216203  0.0757288
 0.0229234  0.0732586
 0.0243028  0.0703516
 0.0257628   0.067048
 0.0273082  0.0634102
  0.028944  0.0594934
 0.0306754  0.0553672
 0.0325081  0.0510939
 0.0344479  0.0467433
 0.0365012  0.0423786
 0.0386746  0.0380686
  0.040975  0.0338757
   0.04341  0.0298603
 0.0459873  0.0260704
 0.0487154  0.0225446
  0.051603   0.019306
 0.0546595  0.0163727
 0.0578947  0.0137535
 0.0613191  0.0114459
 0.0649437 0.00943626
 0.0687803 0.00770631
 0.0728413 0.00622574
 0.0771397 0.00497301
 0.0816895 0.00391295
 0.0865054 0.00299625
 0.0916029 0.00219206
 0.0969985 0.00149136
   0.10271 0.000859097
  0.108755  0.0002956
  0.115153 -0.000203616
  0.121926 -0.000618028
  0.129095 -0.000951478
  0.136683 -0.00122733
  0.144715 -0.00152875
  0.153216 -0.00180044
  0.162214 -0.00209639
  0.171739 -0.00233448
  0.181821 -0.00261032
  0.192492 -0.00276793
  0.203788 -0.0030406
  0.215744 -0.00310463
  0.228399 -0.0034666
  0.241794 -0.00317839
  0.255972 -0.00389682
   0.27098 -0.00292225
  0.286865 -0.00425383
  0.304824 -0.00359122
  0.324407 -0.00224239
  0.343989 -0.00294119
  0.363571 -0.00230504
  0.383154 -0.00254801
  0.402736 -0.00230446
  0.422319 -0.00238888
  0.441901 -0.00230571
  0.461484 -0.00237274
  0.481066 -0.00232904
  0.500648 -0.00241319
  0.520231 -0.00242001
  0.539813 -0.00244311
  0.559396 -0.00244068
  0.578978 -0.00244767
   0.59856 -0.00242144
  0.618143 -0.00237521
  0.637725 -0.00232873
  0.657308 -0.00229459
   0.67689 -0.00222904
  0.696473 -0.0021771
  0.716055 -0.00211093
  0.735637 -0.0020916
   0.75522 -0.0020397
  0.774802 -0.00196139
  0.794385 -0.00185875
  0.813967 -0.00173976
  0.833549 -0.0015956
  0.853132 -0.00145119
  0.872714 -0.0013212
  0.892297 -0.00119293
  0.911879 -0.00102541
  0.931462 -0.000821005
  0.951044 -0.000593402
  0.970626 -0.000393605
  0.990209 -0.000233653
   1.00979 -8.8042e-05
   1.02937 8.07806e-05
   1.04896 0.00025317
   1.06854 0.000437488
   1.08812 0.000647463
    1.1077  0.0008533
   1.12729 0.00105169
   1.14687 0.00122593
   1.16645 0.00136567
   1.18603  0.0014956
   1.20562 0.00162019
    1.2252 0.00176989
   1.24478 0.00193662
   1.26436 0.00208107
   1.28395 0.00221779
   1.30353 0.00236144
   1.32311 0.00248649
   1.34269 0.00259313
   1.36228 0.00260856
   1.38186 0.00262626
   1.40144 0.00265401
   1.42102 0.00271778
   1.44061 0.00275106
   1.46019 0.00277289
   1.47977 0.00275467
   1.49935 0.00279313
   1.51894  0.0027459
   1.53852 0.00275956
    1.5581 0.00266467
   1.57768 0.00275623
   1.59727 0.00259917
   1.61685 0.00276418
   1.63643 0.00242363
   1.65601 0.00298004
    1.6756 0.00219046
   1.69518 0.00350738
   1.71314 0.00405824
   1.72902 0.00268418
   1.74403   0.003725
   1.75821 0.00292811
    1.7716 0.00314462
   1.78426 0.00273322
   1.79621  0.0026416
   1.80751 0.00236533
   1.81818 0.00223488
   1.82826 0.00197408
   1.83779 0.00171752
   1.84679 0.00143153
   1.85529  0.0011845
   1.86332   0.000904
   1.87091 0.000588739
   1.87808 0.000199698
   1.88485 -0.000226946
   1.89125 -0.000704607
   1.89729 -0.0012409
     1.903 -0.00185556
    1.9084 -0.00254194
    1.9135 -0.00332696
   1.91831 -0.00423639
   1.92286 -0.00530513
   1.92716 -0.00655666
   1.93122 -0.0080201
   1.93506 -0.00972707
   1.93868 -0.0117033
   1.94211 -0.0139634
   1.94534 -0.0165218
    1.9484 -0.0193909
   1.95129 -0.0225682
   1.95401 -0.0260307
   1.95659 -0.0297439
   1.95903 -0.0336654
   1.96133 -0.0377539
    1.9635 -0.0419583
   1.96555 -0.0462201
   1.96749   -0.05047
   1.96933 -0.0546416
   1.97106 -0.0586621
   1.97269  -0.062467
   1.97424 -0.0659866
    1.9757 -0.0691666
   1.97708 -0.0719479
   1.97838 -0.0742942
   1.97961 -0.0761612
   1.98077 -0.0775338
   1.98187  -0.078383
   1.98291 -0.0787181
   1.98389 -0.0785259
   1.98482 -0.0778419
   1.98569 -0.0766649
   1.98652 -0.0750566
    1.9873 -0.0730204
   1.98804 -0.0706412
   1.98874 -0.0679178
    1.9894 -0.0649557
   1.99002 -0.0617403
   1.99061 -0.0583943
   1.99116  -0.054885
   1.99169 -0.0513455
   1.99218 -0.0477284
   1.99265 -0.0439858
    1.9931  -0.040476
   1.99355 -0.0369194
   1.99399 -0.0331285
   1.99444 -0.0292918
   1.99488 -0.0254248
   1.99533  -0.021608
   1.99577 -0.0178812
   1.99622 -0.0143357
   1.99666 -0.0110305
   1.99711 -0.00806029
   1.99755 -0.00548877
     1.998 -0.00339252
   1.99844 -0.00181019
   1.99889 -0.000759637
   1.99933 -0.000199113
   1.99978 -1.54904e-05
         2 -1.54904e-05
