         0    50.6288
 0.0002225    50.6288
 0.0006675    50.5858
 0.0011125    50.4954
 0.0015575    50.3251
 0.0020025    50.0436
 0.0024475    49.6238
 0.0028925    49.0449
 0.0033375    48.2948
 0.0037825    47.3707
 0.0042275    46.2789
 0.0046725    45.0339
 0.0051175    43.6562
 0.0055625    42.1706
 0.0060075    40.6036
 0.0064525    38.9819
 0.0068975    37.3303
 0.0073476    35.6541
0.00781612    33.9279
0.00831203    32.1406
0.00883694    30.3104
0.00939255    28.4582
0.00998065    26.6053
 0.0106031    24.7725
  0.011262    22.9789
 0.0119594    21.2415
 0.0126977    19.5744
  0.013479    17.9888
 0.0143061    16.4928
 0.0151815    15.0915
 0.0161082     13.787
  0.017089    12.5795
 0.0181271    11.4671
  0.019226    10.4463
 0.0203891    9.51276
 0.0216203    8.66142
 0.0229234    7.88682
 0.0243028    7.18342
 0.0257628    6.54579
 0.0273082    5.96871
  0.028944    5.44717
 0.0306754    4.97638
 0.0325081    4.55182
 0.0344479    4.16933
 0.0365012    3.82507
 0.0386746    3.51552
  0.040975     3.2375
   0.04341    2.98807
 0.0459873    2.76449
 0.0487154    2.56415
  0.051603     2.3845
 0.0546595    2.22309
 0.0578947    2.07805
 0.0613191    1.94792
 0.0649437    1.83109
 0.0687803    1.72562
 0.0728413    1.62972
 0.0771397    1.54225
 0.0816895    1.46253
 0.0865054    1.38955
 0.0916029    1.32212
 0.0969985    1.25969
   0.10271    1.20182
  0.108755    1.14758
  0.115153    1.09625
  0.121926     1.0477
  0.129095    1.00211
  0.136683   0.959311
  0.144715   0.919582
  0.153216   0.881242
  0.162214   0.843996
  0.171739   0.806756
  0.181821   0.771757
  0.192492   0.737744
  0.203788   0.709934
  0.215744   0.679227
  0.228399   0.656502
  0.241794    0.62398
  0.255972   0.607972
   0.27098   0.580038
  0.286865   0.551115
  0.304824   0.556021
  0.324407   0.515371
  0.343989   0.483674
  0.363571   0.458892
  0.383154   0.433384
  0.402736   0.416518
  0.422319   0.396862
  0.441901   0.383008
  0.461484   0.369938
  0.481066   0.358665
  0.500648   0.346457
  0.520231      0.336
  0.539813   0.325549
  0.559396   0.315303
  0.578978   0.304618
   0.59856   0.294596
  0.618143   0.284385
  0.637725    0.27394
  0.657308    0.26224
   0.67689   0.250736
  0.696473    0.24057
  0.716055     0.2304
  0.735637   0.218744
   0.75522   0.206366
  0.774802   0.194357
  0.794385   0.182003
  0.813967   0.168104
  0.833549   0.153364
  0.853132   0.139151
  0.872714   0.125502
  0.892297    0.11096
  0.911879  0.0945297
  0.931462  0.0762069
  0.951044  0.0577778
  0.970626  0.0397916
  0.990209  0.0213466
   1.00979 0.00222835
   1.02937 -0.0164052
   1.04896  -0.035089
   1.06854 -0.0544428
   1.08812 -0.0732482
    1.1077 -0.0911942
   1.12729  -0.109621
   1.14687  -0.128219
   1.16645  -0.146475
   1.18603  -0.163821
   1.20562  -0.180112
    1.2252  -0.195748
   1.24478  -0.209443
   1.26436  -0.222852
   1.28395  -0.237061
   1.30353  -0.250244
   1.32311  -0.262165
   1.34269  -0.272538
   1.36228  -0.284263
   1.38186   -0.29705
   1.40144  -0.309073
   1.42102  -0.321519
   1.44061  -0.336349
   1.46019   -0.35049
   1.47977  -0.363764
   1.49935  -0.378275
   1.51894  -0.394378
   1.53852  -0.408523
    1.5581  -0.426649
   1.57768  -0.441657
   1.59727  -0.458911
   1.61685  -0.475313
   1.63643  -0.500733
   1.65601  -0.519004
    1.6756  -0.544129
   1.69518  -0.581614
   1.71314   -0.57149
   1.72902  -0.599557
   1.74403  -0.625253
   1.75821  -0.635106
    1.7716  -0.663424
   1.78426  -0.683874
   1.79621  -0.711086
   1.80751  -0.734752
   1.81818  -0.764454
   1.82826  -0.794558
   1.83779  -0.828834
   1.84679   -0.86452
   1.85529  -0.901572
   1.86332  -0.939559
   1.87091  -0.980279
   1.87808   -1.02407
   1.88485    -1.0709
   1.89125   -1.12074
   1.89729   -1.17398
     1.903   -1.23156
    1.9084   -1.29433
    1.9135   -1.36246
   1.91831   -1.43604
   1.92286   -1.51609
   1.92716   -1.60419
   1.93122   -1.70135
   1.93506   -1.80817
   1.93868   -1.92581
   1.94211   -2.05621
   1.94534   -2.20125
    1.9484   -2.36267
   1.95129   -2.54267
   1.95401   -2.74369
   1.95659   -2.96807
   1.95903   -3.21819
   1.96133    -3.4968
    1.9635   -3.80696
   1.96555   -4.15196
   1.96749   -4.53535
   1.96933   -4.96089
   1.97106   -5.43258
   1.97269   -5.95471
   1.97424   -6.53191
    1.9757   -7.16915
   1.97708   -7.87168
   1.97838   -8.64492
   1.97961   -9.49432
   1.98077   -10.4252
   1.98187   -11.4424
   1.98291   -12.5503
   1.98389   -13.7518
   1.98482   -15.0486
   1.98569   -16.4405
   1.98652   -17.9247
    1.9873    -19.496
   1.98804   -21.1459
   1.98874   -22.8631
    1.9894   -24.6333
   1.99002   -26.4395
   1.99061   -28.2626
   1.99116   -30.0822
   1.99169   -31.8774
   1.99218   -33.6277
   1.99265   -35.3157
    1.9931   -36.9524
   1.99355   -38.5625
   1.99399   -40.1413
   1.99444   -41.6646
   1.99488    -43.107
   1.99533   -44.4428
   1.99577   -45.6486
   1.99622   -46.7048
   1.99666   -47.5982
   1.99711   -48.3229
   1.99755    -48.882
     1.998   -49.2875
   1.99844   -49.5596
   1.99889   -49.7246
   1.99933   -49.8125
   1.99978   -49.8547
         2   -49.8547
