         0    3238.62
 0.0002225    3238.62
 0.0006675    3200.87
 0.0011125    3166.06
 0.0015575    3127.18
 0.0020025    3078.64
 0.0024475    3016.18
 0.0028925    2937.25
 0.0033375     2841.1
 0.0037825    2728.78
 0.0042275    2602.76
 0.0046725     2466.5
 0.0051175    2323.86
 0.0055625    2178.65
 0.0060075    2034.29
 0.0064525    1893.62
 0.0068975    1758.45
 0.0073476     1628.9
0.00781612    1503.19
0.00831203    1380.33
0.00883694    1261.59
0.00939255    1148.36
0.00998065    1041.68
 0.0106031    942.304
  0.011262    850.663
 0.0119594    766.924
 0.0126977    690.988
  0.013479    622.581
 0.0143061    561.276
 0.0151815    506.558
 0.0161082     457.86
  0.017089    414.598
 0.0181271    376.197
  0.019226     342.11
 0.0203891    311.827
 0.0216203    284.883
 0.0229234    260.859
 0.0243028     239.39
 0.0257628    220.157
 0.0273082    202.878
  0.028944    187.308
 0.0306754    173.241
 0.0325081      160.5
 0.0344479    148.927
 0.0365012    138.379
 0.0386746    128.737
  0.040975    119.905
   0.04341    111.803
 0.0459873    104.357
 0.0487154    97.5008
  0.051603    91.1695
 0.0546595    85.3022
 0.0578947    79.8561
 0.0613191    74.8018
 0.0649437    70.1005
 0.0687803    65.7253
 0.0728413    61.6482
 0.0771397    57.8394
 0.0816895    54.2897
 0.0865054    50.9744
 0.0916029    47.8648
 0.0969985    44.9621
   0.10271    42.2579
  0.108755    39.7223
  0.115153    37.3467
  0.121926    35.1245
  0.129095    33.0432
  0.136683    31.0929
  0.144715    29.2605
  0.153216    27.5351
  0.162214    25.9035
  0.171739    24.3555
  0.181821    22.8912
  0.192492    21.5076
  0.203788    20.2164
  0.215744    18.9648
  0.228399    17.7909
  0.241794    16.6618
  0.255972    15.6424
   0.27098    14.6805
  0.286865    13.6084
  0.304824    12.2437
  0.324407    11.2887
  0.343989    10.5748
  0.363571     9.9111
  0.383154    9.29841
  0.402736    8.74893
  0.422319    8.24254
  0.441901    7.78672
  0.461484    7.36281
  0.481066    6.97108
  0.500648    6.60157
  0.520231    6.25823
  0.539813    5.93523
  0.559396    5.61996
  0.578978     5.3164
   0.59856    5.03457
  0.618143    4.76393
  0.637725    4.50255
  0.657308    4.25646
   0.67689    4.02698
  0.696473    3.80539
  0.716055    3.59951
  0.735637    3.40127
   0.75522    3.20795
  0.774802    3.02589
  0.794385    2.85859
  0.813967    2.70388
  0.833549    2.55944
  0.853132    2.42909
  0.872714    2.31516
  0.892297    2.21395
  0.911879    2.12278
  0.931462    2.04623
  0.951044    1.98702
  0.970626    1.94491
  0.990209    1.91954
   1.00979    1.90852
   1.02937    1.91309
   1.04896    1.93418
   1.06854    1.97088
   1.08812     2.0253
    1.1077     2.0936
   1.12729    2.17761
   1.14687    2.27805
   1.16645    2.39617
   1.18603    2.53537
   1.20562    2.68961
    1.2252    2.86071
   1.24478      3.048
   1.26436    3.24804
   1.28395    3.46169
   1.30353    3.68826
   1.32311    3.92783
   1.34269    4.18278
   1.36228    4.45798
   1.38186    4.75228
   1.40144    5.06408
   1.42102    5.39258
   1.44061    5.73763
   1.46019    6.09848
   1.47977    6.47153
   1.49935    6.86922
   1.51894     7.2956
   1.53852    7.74287
    1.5581    8.21903
   1.57768    8.72507
   1.59727    9.26834
   1.61685    9.83754
   1.63643    10.4637
   1.65601    11.1018
    1.6756    11.7792
   1.69518    12.6774
   1.71314    13.9889
   1.72902    15.0268
   1.74403    15.9598
   1.75821    16.9115
    1.7716    17.9639
   1.78426    19.0514
   1.79621    20.2096
   1.80751    21.4144
   1.81818    22.7069
   1.82826     24.077
   1.83779    25.5311
   1.84679     27.073
   1.85529    28.7207
   1.86332    30.4773
   1.87091     32.348
   1.87808    34.3444
   1.88485    36.4753
   1.89125    38.7529
   1.89729    41.1939
     1.903    43.8159
    1.9084    46.6299
    1.9135    49.6581
   1.91831    52.9106
   1.92286    56.3929
   1.92716    60.1205
   1.93122    64.1229
   1.93506    68.4202
   1.93868     73.034
   1.94211    77.9873
   1.94534    83.3178
    1.9484    89.0708
   1.95129    95.2978
   1.95401    102.046
   1.95659    109.358
   1.95903    117.303
   1.96133    125.968
    1.9635    135.435
   1.96555    145.799
   1.96749    157.178
   1.96933     169.71
   1.97106    183.544
   1.97269     198.85
   1.97424    215.838
    1.9757    234.746
   1.97708    255.853
   1.97838    279.481
   1.97961    305.992
   1.98077    335.793
   1.98187    369.339
   1.98291    407.128
   1.98389    449.695
   1.98482    497.599
   1.98569    551.401
   1.98652    611.646
    1.9873    678.817
   1.98804    753.308
   1.98874    835.359
    1.9894    925.035
   1.99002    1022.13
   1.99061    1126.22
   1.99116    1236.49
   1.99169    1351.94
   1.99218    1471.19
   1.99265    1592.97
    1.9931    1718.24
   1.99355    1848.68
   1.99399    1984.18
   1.99444    2122.95
   1.99488    2262.25
   1.99533    2398.85
   1.99577    2529.11
   1.99622     2649.4
   1.99666    2756.49
   1.99711    2848.11
   1.99755    2923.33
     1.998     2982.9
   1.99844    3029.29
   1.99889    3066.58
   1.99933    3100.09
   1.99978    3136.49
         2    3136.49
