         0 9.54107e-06
 0.0002225 9.54107e-06
 0.0006675 -0.000232219
 0.0011125 -0.000762136
 0.0015575 -0.00190201
 0.0020025 -0.00348943
 0.0024475 -0.00571037
 0.0028925 -0.00831919
 0.0033375 -0.0114412
 0.0037825 -0.0148049
 0.0042275 -0.0185171
 0.0046725 -0.0223116
 0.0051175 -0.0262988
 0.0055625 -0.0302326
 0.0060075  -0.034235
 0.0064525 -0.0380849
 0.0068975  -0.041793
 0.0073476 -0.0453505
0.00781612 -0.0492374
0.00831203   -0.05291
0.00883694 -0.0565679
0.00939255 -0.0601323
0.00998065 -0.0635727
 0.0106031 -0.0668324
  0.011262 -0.0698603
 0.0119594 -0.0726074
 0.0126977 -0.0750184
  0.013479 -0.0770495
 0.0143061 -0.0786519
 0.0151815 -0.0797906
 0.0161082 -0.0804308
  0.017089 -0.0805522
 0.0181271 -0.0801391
  0.019226 -0.0791903
 0.0203891 -0.0777121
 0.0216203 -0.0757248
 0.0229234 -0.0732567
 0.0243028 -0.0703481
 0.0257628 -0.0670461
 0.0273082  -0.063407
  0.028944 -0.0594914
 0.0306754 -0.0553643
 0.0325081 -0.0510919
 0.0344479 -0.0467407
 0.0365012 -0.0423767
 0.0386746 -0.0380664
  0.040975  -0.033874
   0.04341 -0.0298584
 0.0459873 -0.0260689
 0.0487154  -0.022543
  0.051603 -0.0193047
 0.0546595 -0.0163716
 0.0578947 -0.0137526
 0.0613191 -0.0114451
 0.0649437 -0.00943567
 0.0687803 -0.00770577
 0.0728413 -0.00622538
 0.0771397 -0.0049727
 0.0816895 -0.00391276
 0.0865054 -0.00299611
 0.0916029 -0.00219201
 0.0969985 -0.00149134
   0.10271 -0.000859154
  0.108755 -0.00029569
  0.115153 0.000203471
  0.121926 0.000617859
  0.129095 0.000951273
  0.136683 0.00122713
  0.144715 0.00152851
  0.153216  0.0018002
  0.162214 0.00209611
  0.171739 0.00233422
  0.181821 0.00261001
  0.192492 0.00276768
  0.203788 0.00304028
  0.215744 0.00310443
  0.228399 0.00346623
  0.241794 0.00317826
  0.255972 0.00389638
   0.27098 0.00292222
  0.286865 0.00425332
  0.304824 0.00359115
  0.324407 0.00224225
  0.343989 0.00294102
  0.363571 0.00230491
  0.383154 0.00254787
  0.402736 0.00230434
  0.422319 0.00238876
  0.441901 0.00230559
  0.461484 0.00237263
  0.481066 0.00232894
  0.500648 0.00241309
  0.520231 0.00241992
  0.539813 0.00244302
  0.559396 0.00244058
  0.578978 0.00244758
   0.59856 0.00242135
  0.618143 0.00237512
  0.637725 0.00232864
  0.657308  0.0022945
   0.67689 0.00222896
  0.696473 0.00217702
  0.716055 0.00211085
  0.735637 0.00209152
   0.75522 0.00203962
  0.774802 0.00196132
  0.794385 0.00185868
  0.813967  0.0017397
  0.833549 0.00159555
  0.853132 0.00145114
  0.872714 0.00132115
  0.892297 0.00119289
  0.911879 0.00102538
  0.931462 0.00082098
  0.951044 0.000593383
  0.970626 0.000393594
  0.990209 0.000233645
   1.00979 8.80405e-05
   1.02937 -8.07778e-05
   1.04896 -0.000253158
   1.06854 -0.000437474
   1.08812 -0.000647438
    1.1077 -0.00085327
   1.12729 -0.00105165
   1.14687 -0.00122588
   1.16645 -0.00136561
   1.18603 -0.00149554
   1.20562 -0.00162011
    1.2252 -0.00176981
   1.24478 -0.00193654
   1.26436 -0.00208099
   1.28395 -0.00221769
   1.30353 -0.00236135
   1.32311 -0.00248639
   1.34269 -0.00259303
   1.36228 -0.00260846
   1.38186 -0.00262616
   1.40144 -0.0026539
   1.42102 -0.00271768
   1.44061 -0.00275095
   1.46019 -0.00277279
   1.47977 -0.00275457
   1.49935 -0.00279301
   1.51894 -0.00274579
   1.53852 -0.00275944
    1.5581 -0.00266456
   1.57768 -0.00275612
   1.59727 -0.00259905
   1.61685 -0.00276407
   1.63643 -0.00242352
   1.65601 -0.0029799
    1.6756 -0.00219035
   1.69518 -0.00350737
   1.71314 -0.00405772
   1.72902 -0.00268416
   1.74403 -0.00372457
   1.75821 -0.00292801
    1.7716 -0.00314427
   1.78426 -0.00273306
   1.79621 -0.00264131
   1.80751 -0.00236511
   1.81818 -0.00223461
   1.82826 -0.00197386
   1.83779 -0.00171728
   1.84679 -0.00143133
   1.85529 -0.00118428
   1.86332 -0.000903815
   1.87091 -0.000588555
   1.87808 -0.000199564
   1.88485 0.000227062
   1.89125 0.000704667
   1.89729 0.00124094
     1.903 0.00185553
    1.9084 0.00254188
    1.9135 0.00332681
   1.91831 0.00423619
   1.92286  0.0053048
   1.92716 0.00655628
   1.93122 0.00801955
   1.93506 0.00972647
   1.93868  0.0117025
   1.94211  0.0139626
   1.94534  0.0165207
    1.9484  0.0193897
   1.95129  0.0225667
   1.95401  0.0260293
   1.95659  0.0297421
   1.95903  0.0336637
   1.96133  0.0377517
    1.9635  0.0419564
   1.96555  0.0462177
   1.96749   0.050468
   1.96933  0.0546389
   1.97106  0.0586601
   1.97269  0.0624641
   1.97424  0.0659847
    1.9757  0.0691633
   1.97708  0.0719461
   1.97838  0.0742905
   1.97961  0.0761597
   1.98077  0.0775294
   1.98187  0.0783818
   1.98291   0.078713
   1.98389  0.0785252
   1.98482  0.0778358
   1.98569  0.0766652
   1.98652  0.0750493
    1.9873  0.0730222
   1.98804  0.0706324
   1.98874  0.0679219
    1.9894  0.0649447
   1.99002  0.0617477
   1.99061  0.0583803
   1.99116  0.0548969
   1.99169   0.051327
   1.99218  0.0477464
   1.99265  0.0439616
    1.9931  0.0404993
   1.99355  0.0368929
   1.99399   0.033152
   1.99444  0.0292656
   1.99488  0.0254485
   1.99533  0.0215821
   1.99577  0.0179053
   1.99622  0.0143101
   1.99666   0.011055
   1.99711 0.00803494
   1.99755  0.0055135
     1.998 0.00336739
   1.99844  0.0018351
   1.99889 0.000734632
   1.99933 0.000224085
   1.99978 -9.48122e-06
         2 -9.48122e-06
