         0 -0.00606813
 0.0002225 -0.00606813
 0.0006675 -0.00606813
 0.0011125 -0.00606833
 0.0015575 -0.0060688
 0.0020025 -0.00606999
 0.0024475 -0.00607185
 0.0028925 -0.00607496
 0.0033375 -0.00607911
 0.0037825 -0.00608494
 0.0042275 -0.00609203
 0.0046725 -0.0061011
 0.0051175 -0.00611153
 0.0055625 -0.00612409
 0.0060075 -0.00613798
 0.0064525 -0.00615405
 0.0068975 -0.00617135
 0.0073476 -0.00619092
0.00781612 -0.00621246
0.00831203 -0.00623786
0.00883694 -0.00626587
0.00939255 -0.00629843
0.00998065 -0.00633408
 0.0106031 -0.00637496
  0.011262 -0.00641935
 0.0119594 -0.00646957
 0.0126977 -0.00652361
  0.013479 -0.00658392
 0.0143061 -0.00664811
 0.0151815 -0.00671873
 0.0161082 -0.00679301
  0.017089 -0.00687356
 0.0181271 -0.0069573
  0.019226 -0.00704695
 0.0203891 -0.00713919
 0.0216203 -0.00723674
 0.0229234 -0.00733588
 0.0243028 -0.0074391
 0.0257628 -0.0075422
 0.0273082 -0.00764765
  0.028944 -0.0077512
 0.0306754 -0.00785549
 0.0325081 -0.0079563
 0.0344479 -0.00805646
 0.0365012 -0.00815169
 0.0386746 -0.00824468
  0.040975 -0.00833089
   0.04341 -0.00841386
 0.0459873 -0.00849003
 0.0487154 -0.00856313
  0.051603 -0.00862842
 0.0546595 -0.00868838
 0.0578947 -0.00873842
 0.0613191 -0.00878186
 0.0649437 -0.00881481
 0.0687803 -0.00884314
 0.0728413 -0.00886334
 0.0771397 -0.00888097
 0.0816895 -0.00889284
 0.0865054 -0.00890538
 0.0916029 -0.00891188
 0.0969985 -0.00891767
   0.10271 -0.00891855
  0.108755 -0.00892068
  0.115153 -0.00891309
  0.121926 -0.00890624
  0.129095 -0.00889091
  0.136683 -0.00888279
  0.144715 -0.00886925
  0.153216  -0.008855
  0.162214 -0.00882328
  0.171739 -0.00879436
  0.181821 -0.00876133
  0.192492 -0.00874116
  0.203788 -0.00871385
  0.215744 -0.00868689
  0.228399 -0.00864091
  0.241794 -0.00857473
  0.255972 -0.00854821
   0.27098 -0.00845713
  0.286865 -0.00844815
  0.304824 -0.00831974
  0.324407 -0.00831857
  0.343989 -0.00819913
  0.363571 -0.00817096
  0.383154  -0.008095
  0.402736 -0.00804671
  0.422319 -0.00798114
  0.441901 -0.0079292
  0.461484 -0.00784487
  0.481066 -0.00777419
  0.500648 -0.00769062
  0.520231 -0.00766568
  0.539813 -0.00762257
  0.559396 -0.00758271
  0.578978 -0.00753039
   0.59856 -0.0074993
  0.618143 -0.00745045
  0.637725 -0.0074206
  0.657308 -0.00737262
   0.67689 -0.00734105
  0.696473 -0.0072818
  0.716055 -0.00724439
  0.735637 -0.00718967
   0.75522 -0.00715728
  0.774802 -0.00712002
  0.794385 -0.00710144
  0.813967 -0.00706953
  0.833549 -0.00705213
  0.853132 -0.00702481
  0.872714 -0.00701785
  0.892297 -0.00699955
  0.911879 -0.00699738
  0.931462 -0.00698457
  0.951044 -0.00698928
  0.970626 -0.00698495
  0.990209 -0.00699617
   1.00979 -0.00699522
   1.02937 -0.00700513
   1.04896 -0.00700331
   1.06854 -0.00701471
   1.08812 -0.00701337
    1.1077 -0.00703043
   1.12729 -0.00704387
   1.14687 -0.00707249
   1.16645 -0.0070888
   1.18603 -0.00713427
   1.20562 -0.00717393
    1.2252 -0.00722761
   1.24478 -0.00726846
   1.26436 -0.00731308
   1.28395 -0.0073761
   1.30353 -0.00744566
   1.32311 -0.0074971
   1.34269 -0.00754528
   1.36228 -0.0076008
   1.38186 -0.00764888
   1.40144 -0.00771136
   1.42102 -0.00776667
   1.44061 -0.00780624
   1.46019  -0.007822
   1.47977 -0.00785157
   1.49935 -0.00788865
   1.51894 -0.00794284
   1.53852 -0.00798903
    1.5581 -0.00803524
   1.57768 -0.00805257
   1.59727 -0.0081166
   1.61685 -0.00812761
   1.63643 -0.00819269
   1.65601 -0.00818673
    1.6756 -0.00827316
   1.69518 -0.0082637
   1.71314 -0.00840416
   1.72902 -0.00842563
   1.74403 -0.00853428
   1.75821 -0.00857369
    1.7716 -0.0086278
   1.78426 -0.0086559
   1.79621 -0.00868979
   1.80751 -0.00871964
   1.81818 -0.00875151
   1.82826 -0.00876967
   1.83779 -0.0087971
   1.84679 -0.00881547
   1.85529 -0.00883432
   1.86332 -0.00885254
   1.87091 -0.00887303
   1.87808 -0.00887988
   1.88485 -0.00888522
   1.89125 -0.00887894
   1.89729 -0.00887757
     1.903 -0.0088712
    1.9084 -0.00886548
    1.9135 -0.00884818
   1.91831 -0.00883081
   1.92286 -0.00880541
   1.92716 -0.00878132
   1.93122 -0.00874671
   1.93506 -0.00871166
   1.93868  -0.008668
   1.94211 -0.00862541
   1.94534 -0.00857382
    1.9484 -0.00852029
   1.95129 -0.00845744
   1.95401 -0.00839375
   1.95659 -0.00832117
   1.95903 -0.00824764
   1.96133 -0.00816582
    1.9635 -0.00808327
   1.96555 -0.00799303
   1.96749 -0.00790249
   1.96933 -0.00780574
   1.97106 -0.00771011
   1.97269 -0.0076101
   1.97424 -0.00751262
    1.9757 -0.00741263
   1.97708 -0.00731659
   1.97838 -0.00721979
   1.97961 -0.0071281
   1.98077 -0.0070371
   1.98187 -0.00695203
   1.98291 -0.00686875
   1.98389 -0.0067919
   1.98482 -0.00671766
   1.98569   -0.00665
   1.98652 -0.00658549
    1.9873 -0.00652739
   1.98804 -0.0064727
   1.98874 -0.00642396
    1.9894 -0.00637865
   1.99002 -0.00633867
   1.99061 -0.00630198
   1.99116 -0.00626988
   1.99169 -0.00624086
   1.99218 -0.00621566
   1.99265 -0.00619325
    1.9931 -0.00617374
   1.99355 -0.00615573
   1.99399 -0.00613964
   1.99444 -0.00612516
   1.99488 -0.00611256
   1.99533 -0.00610169
   1.99577 -0.00609259
   1.99622 -0.00608518
   1.99666 -0.00607935
   1.99711  -0.006075
   1.99755 -0.00607191
     1.998 -0.00606993
   1.99844 -0.00606877
   1.99889 -0.00606826
   1.99933 -0.00606808
   1.99978 -0.00606807
         2 -0.00606807
