         0 0.000143353
 0.0002225 0.000143353
 0.0006675 0.000143361
 0.0011125 0.000143149
 0.0015575 0.00014269
 0.0020025 0.000141475
 0.0024475 0.000139617
 0.0028925 0.000136447
 0.0033375 0.000132292
 0.0037825 0.000126372
 0.0042275 0.000119253
 0.0046725 0.000110064
 0.0051175 9.96025e-05
 0.0055625 8.6901e-05
 0.0060075 7.29729e-05
 0.0064525 5.67452e-05
 0.0068975 3.94239e-05
 0.0073476 1.97048e-05
0.00781612 -1.83429e-06
0.00831203 -2.73787e-05
0.00883694 -5.53316e-05
0.00939255 -8.79793e-05
0.00998065 -0.000123454
 0.0106031 -0.00016428
  0.011262 -0.000208288
 0.0119594 -0.000258222
 0.0126977 -0.000311558
  0.013479 -0.000371251
 0.0143061 -0.000434356
 0.0151815 -0.000504038
 0.0161082 -0.000576857
  0.017089 -0.000656203
 0.0181271 -0.000738076
  0.019226 -0.000826116
 0.0203891 -0.000915706
 0.0216203 -0.00101079
 0.0229234 -0.00110609
 0.0243028 -0.00120593
 0.0257628 -0.00130433
 0.0273082 -0.00140612
  0.028944 -0.00150461
 0.0306754 -0.00160524
 0.0325081 -0.0017006
 0.0344479 -0.00179693
 0.0365012 -0.00188609
 0.0386746 -0.00197524
  0.040975 -0.0020555
   0.04341 -0.00213516
 0.0459873 -0.00220456
 0.0487154 -0.00227328
  0.051603 -0.0023308
 0.0546595 -0.0023881
 0.0578947 -0.00243364
 0.0613191 -0.00247997
 0.0649437 -0.00251433
 0.0687803 -0.00255086
 0.0728413 -0.0025753
 0.0771397 -0.00260346
 0.0816895 -0.0026194
 0.0865054 -0.00264076
 0.0916029 -0.00264948
 0.0969985 -0.00266505
   0.10271 -0.00266718
  0.108755 -0.00267751
  0.115153 -0.00267332
  0.121926 -0.00267878
  0.129095 -0.00266837
  0.136683 -0.00266901
  0.144715 -0.00265235
  0.153216 -0.00264771
  0.162214 -0.00262415
  0.171739 -0.00261316
  0.181821 -0.00258152
  0.192492 -0.00256297
  0.203788 -0.00252375
  0.215744 -0.00249607
  0.228399 -0.0024501
  0.241794 -0.00240869
  0.255972 -0.00236558
   0.27098 -0.00229734
  0.286865 -0.00228064
  0.304824 -0.00215074
  0.324407 -0.00215574
  0.343989 -0.00206727
  0.363571 -0.00204244
  0.383154 -0.00197878
  0.402736 -0.00194203
  0.422319 -0.00188617
  0.441901 -0.0018459
  0.461484 -0.00179215
  0.481066 -0.00174831
  0.500648 -0.00169595
  0.520231 -0.00164882
  0.539813 -0.0015963
  0.559396 -0.00154848
  0.578978 -0.00149687
   0.59856 -0.00144942
  0.618143 -0.0013992
  0.637725 -0.00135391
  0.657308 -0.00130613
   0.67689 -0.0012631
  0.696473 -0.00121829
  0.716055 -0.00117702
  0.735637 -0.0011345
   0.75522 -0.00109474
  0.774802 -0.0010553
  0.794385 -0.00101898
  0.813967 -0.000983054
  0.833549 -0.00095124
  0.853132 -0.000921078
  0.872714 -0.000894795
  0.892297 -0.000870337
  0.911879 -0.000849779
  0.931462 -0.000831759
  0.951044 -0.000818304
  0.970626 -0.000808412
  0.990209 -0.000802643
   1.00979 -0.000799672
   1.02937 -0.000800532
   1.04896 -0.000804883
   1.06854 -0.000813059
   1.08812 -0.000825143
    1.1077 -0.000841751
   1.12729 -0.000861809
   1.14687 -0.00088577
   1.16645 -0.000912647
   1.18603 -0.000942808
   1.20562 -0.000975671
    1.2252 -0.00101119
   1.24478 -0.00104909
   1.26436 -0.00108978
   1.28395 -0.00113287
   1.30353 -0.00117859
   1.32311 -0.00122673
   1.34269 -0.00127611
   1.36228 -0.00132749
   1.38186 -0.00137708
   1.40144 -0.00142902
   1.42102 -0.00147896
   1.44061 -0.00153202
   1.46019 -0.00158165
   1.47977 -0.00163552
   1.49935 -0.00168402
   1.51894 -0.00173899
   1.53852 -0.00178658
    1.5581 -0.00184265
   1.57768 -0.00188619
   1.59727 -0.00194427
   1.61685 -0.00198309
   1.63643 -0.00204834
   1.65601 -0.00207473
    1.6756 -0.00216327
   1.69518 -0.00215942
   1.71314 -0.00228893
   1.72902 -0.00230506
   1.74403 -0.00237218
   1.75821 -0.00241551
    1.7716 -0.00245438
   1.78426 -0.00249846
   1.79621 -0.00252323
   1.80751 -0.00256109
   1.81818 -0.00257752
   1.82826 -0.00260829
   1.83779 -0.00261784
   1.84679 -0.00264099
   1.85529 -0.00264484
   1.86332 -0.0026613
   1.87091 -0.00265994
   1.87808 -0.00266979
   1.88485 -0.00266342
   1.89125 -0.00266697
   1.89729 -0.00265577
     1.903 -0.00265314
    1.9084 -0.00263681
    1.9135 -0.00262758
   1.91831 -0.00260542
   1.92286 -0.00258884
   1.92716 -0.00255976
   1.93122 -0.00253465
   1.93506 -0.00249729
   1.93868 -0.00246232
   1.94211 -0.00241528
   1.94534 -0.00236928
    1.9484 -0.00231148
   1.95129 -0.00225369
   1.95401 -0.00218464
   1.95659 -0.00211513
   1.95903 -0.00203536
   1.96133 -0.00195521
    1.9635 -0.00186618
   1.96555 -0.00177734
   1.96749 -0.00168131
   1.96933 -0.00158641
   1.97106 -0.00148625
   1.97269 -0.00138838
   1.97424 -0.0012872
    1.9757 -0.00118954
   1.97708 -0.00109043
   1.97838 -0.000995971
   1.97961 -0.000901703
   1.98077 -0.000813013
   1.98187 -0.000725834
   1.98291 -0.000644879
   1.98389 -0.000566398
   1.98482 -0.000494474
   1.98569 -0.000425624
   1.98652 -0.000363361
    1.9873 -0.000304436
   1.98804 -0.00025186
   1.98874 -0.000202609
    1.9894 -0.000159264
   1.99002 -0.000119025
   1.99061 -8.41103e-05
   1.99116 -5.19504e-05
   1.99169 -2.44571e-05
   1.99218 6.92678e-07
   1.99265 2.1865e-05
    1.9931 4.12706e-05
   1.99355 5.82883e-05
   1.99399 7.42508e-05
   1.99444 8.79267e-05
   1.99488 0.000100415
   1.99533 0.000110681
   1.99577 0.000119712
   1.99622 0.000126692
   1.99666 0.000132508
   1.99711 0.000136579
   1.99755 0.000139694
     1.998 0.00014151
   1.99844 0.000142705
   1.99889 0.000143152
   1.99933 0.000143362
   1.99978 0.000143353
         2 0.000143353
