         0 8.06736e-05
 0.0002225 8.06736e-05
 0.0006675 8.05106e-05
 0.0011125 8.05252e-05
 0.0015575 8.04702e-05
 0.0020025 8.0512e-05
 0.0024475 8.05445e-05
 0.0028925 8.06219e-05
 0.0033375 8.07241e-05
 0.0037825 8.0839e-05
 0.0042275 8.09958e-05
 0.0046725 8.11444e-05
 0.0051175 8.13428e-05
 0.0055625 8.15179e-05
 0.0060075 8.17467e-05
 0.0064525  8.194e-05
 0.0068975 8.21889e-05
 0.0073476 8.24021e-05
0.00781612 8.2661e-05
0.00831203 8.29043e-05
0.00883694 8.31989e-05
0.00939255 8.34686e-05
0.00998065 8.3788e-05
 0.0106031 8.40799e-05
  0.011262 8.44131e-05
 0.0119594 8.47174e-05
 0.0126977 8.50511e-05
  0.013479 8.53535e-05
 0.0143061 8.5672e-05
 0.0151815 8.5954e-05
 0.0161082 8.6238e-05
  0.017089 8.64781e-05
 0.0181271 8.67057e-05
  0.019226 8.68798e-05
 0.0203891 8.70274e-05
 0.0216203 8.71109e-05
 0.0229234 8.71554e-05
 0.0243028 8.71255e-05
 0.0257628 8.70468e-05
 0.0273082 8.68856e-05
  0.028944 8.66697e-05
 0.0306754 8.63665e-05
 0.0325081 8.60079e-05
 0.0344479 8.55615e-05
 0.0365012 8.50643e-05
 0.0386746 8.44837e-05
  0.040975 8.38624e-05
   0.04341 8.31659e-05
 0.0459873 8.24428e-05
 0.0487154 8.16558e-05
  0.051603 8.0859e-05
 0.0546595 8.00107e-05
 0.0578947 7.91706e-05
 0.0613191 7.82915e-05
 0.0649437 7.74386e-05
 0.0687803 7.65577e-05
 0.0728413 7.57182e-05
 0.0771397 7.48562e-05
 0.0816895 7.40487e-05
 0.0865054 7.32207e-05
 0.0916029 7.24523e-05
 0.0969985 7.16562e-05
   0.10271 7.09239e-05
  0.108755 7.01567e-05
  0.115153 6.94558e-05
  0.121926 6.87093e-05
  0.129095 6.80315e-05
  0.136683 6.72962e-05
  0.144715 6.66359e-05
  0.153216 6.59065e-05
  0.162214 6.52633e-05
  0.171739 6.4527e-05
  0.181821 6.39022e-05
  0.192492 6.31598e-05
  0.203788 6.25592e-05
  0.215744 6.17845e-05
  0.228399 6.12021e-05
  0.241794 6.03895e-05
  0.255972 5.98358e-05
   0.27098 5.89672e-05
  0.286865 5.84714e-05
  0.304824 5.74684e-05
  0.324407 5.68443e-05
  0.343989 5.59354e-05
  0.363571 5.52663e-05
  0.383154 5.44776e-05
  0.402736 5.38482e-05
  0.422319 5.31545e-05
  0.441901 5.25798e-05
  0.461484 5.19476e-05
  0.481066 5.14016e-05
  0.500648 5.08055e-05
  0.520231 5.0282e-05
  0.539813 4.97398e-05
  0.559396 4.9255e-05
  0.578978 4.87426e-05
   0.59856 4.82747e-05
  0.618143 4.77903e-05
  0.637725 4.73539e-05
  0.657308 4.69042e-05
   0.67689 4.64999e-05
  0.696473 4.60813e-05
  0.716055 4.56963e-05
  0.735637 4.53013e-05
   0.75522 4.49453e-05
  0.774802 4.45923e-05
  0.794385 4.42766e-05
  0.813967 4.39659e-05
  0.833549 4.36952e-05
  0.853132 4.34328e-05
  0.872714 4.32069e-05
  0.892297 4.29982e-05
  0.911879 4.28291e-05
  0.931462 4.26846e-05
  0.951044 4.25788e-05
  0.970626 4.24978e-05
  0.990209 4.24512e-05
   1.00979 4.24345e-05
   1.02937 4.24532e-05
   1.04896 4.25034e-05
   1.06854 4.2587e-05
   1.08812 4.27038e-05
    1.1077 4.28515e-05
   1.12729 4.30321e-05
   1.14687  4.324e-05
   1.16645 4.34816e-05
   1.18603 4.37417e-05
   1.20562 4.40351e-05
    1.2252 4.4352e-05
   1.24478 4.47043e-05
   1.26436 4.50694e-05
   1.28395 4.54677e-05
   1.30353 4.58665e-05
   1.32311 4.62943e-05
   1.34269 4.67234e-05
   1.36228 4.7196e-05
   1.38186 4.76623e-05
   1.40144 4.81711e-05
   1.42102 4.86641e-05
   1.44061 4.91961e-05
   1.46019 4.9711e-05
   1.47977 5.02757e-05
   1.49935 5.08197e-05
   1.51894 5.14243e-05
   1.53852 5.19946e-05
    1.5581 5.26474e-05
   1.57768 5.32434e-05
   1.59727 5.39394e-05
   1.61685 5.45752e-05
   1.63643 5.53436e-05
   1.65601 5.6005e-05
    1.6756 5.6896e-05
   1.69518 5.74994e-05
   1.71314 5.84857e-05
   1.72902 5.89644e-05
   1.74403 5.98128e-05
   1.75821 6.03436e-05
    1.7716 6.11354e-05
   1.78426 6.16994e-05
   1.79621 6.24578e-05
   1.80751 6.30492e-05
   1.81818 6.37881e-05
   1.82826 6.44099e-05
   1.83779 6.51325e-05
   1.84679 6.57625e-05
   1.85529 6.64716e-05
   1.86332 6.71132e-05
   1.87091 6.78221e-05
   1.87808 6.84732e-05
   1.88485 6.91866e-05
   1.89125 6.98582e-05
   1.89729 7.05896e-05
     1.903 7.12937e-05
    1.9084 7.20571e-05
    1.9135 7.27996e-05
   1.91831 7.35981e-05
   1.92286 7.43796e-05
   1.92716 7.52114e-05
   1.93122 7.60251e-05
   1.93506 7.68777e-05
   1.93868 7.77049e-05
   1.94211 7.85558e-05
   1.94534 7.93712e-05
    1.9484 8.01935e-05
   1.95129 8.09675e-05
   1.95401 8.17301e-05
   1.95659 8.24309e-05
   1.95903 8.31026e-05
   1.96133 8.37008e-05
    1.9635 8.42564e-05
   1.96555 8.47304e-05
   1.96749 8.51527e-05
   1.96933 8.54899e-05
   1.97106 8.57718e-05
   1.97269 8.59695e-05
   1.97424 8.61131e-05
    1.9757 8.61774e-05
   1.97708 8.61936e-05
   1.97838 8.61389e-05
   1.97961 8.60459e-05
   1.98077 8.5892e-05
   1.98187 8.57124e-05
   1.98291 8.54822e-05
   1.98389  8.524e-05
   1.98482 8.49565e-05
   1.98569 8.46752e-05
   1.98652 8.43596e-05
    1.9873  8.406e-05
   1.98804 8.37309e-05
   1.98874 8.34307e-05
    1.9894 8.31033e-05
   1.99002 8.28162e-05
   1.99061 8.2503e-05
   1.99116 8.22384e-05
   1.99169 8.19502e-05
   1.99218 8.1712e-05
   1.99265 8.14592e-05
    1.9931 8.12508e-05
   1.99355 8.10079e-05
   1.99399 8.08193e-05
   1.99444 8.05964e-05
   1.99488 8.04258e-05
   1.99533 8.02327e-05
   1.99577 8.00882e-05
   1.99622 7.99359e-05
   1.99666 7.98243e-05
   1.99711 7.97254e-05
   1.99755 7.96502e-05
     1.998 7.96193e-05
   1.99844 7.95788e-05
   1.99889 7.96333e-05
   1.99933 7.96191e-05
   1.99978 7.97789e-05
         2 7.97789e-05
