         0          0
 0.0002225  0.0111857
 0.0006675  0.0335447
 0.0011125  0.0558775
 0.0015575  0.0781561
 0.0020025   0.100338
 0.0024475   0.122369
 0.0028925   0.144183
 0.0033375   0.165706
 0.0037825   0.186862
 0.0042275   0.207575
 0.0046725   0.227774
 0.0051175   0.247394
 0.0055625   0.266383
 0.0060075   0.284699
 0.0064525   0.302311
 0.0068975     0.3192
 0.0073476   0.335544
0.00781612   0.351772
0.00831203   0.368086
0.00883694   0.384411
0.00939255   0.400676
0.00998065   0.416809
 0.0106031   0.432745
  0.011262   0.448426
 0.0119594     0.4638
 0.0126977   0.478823
  0.013479   0.493459
 0.0143061   0.507682
 0.0151815   0.521473
 0.0161082   0.534819
  0.017089   0.547714
 0.0181271   0.560156
  0.019226   0.572151
 0.0203891   0.583702
 0.0216203   0.594818
 0.0229234   0.605507
 0.0243028   0.615781
 0.0257628    0.62566
 0.0273082   0.635167
  0.028944   0.644327
 0.0306754   0.653153
 0.0325081   0.661651
 0.0344479   0.669824
 0.0365012   0.677698
 0.0386746   0.685319
  0.040975   0.692745
   0.04341    0.70002
 0.0459873    0.70718
 0.0487154   0.714261
  0.051603   0.721286
 0.0546595   0.728232
 0.0578947   0.735051
 0.0613191   0.741763
 0.0649437   0.748443
 0.0687803   0.755139
 0.0728413   0.761883
 0.0771397   0.768664
 0.0816895    0.77561
 0.0865054   0.782864
 0.0916029   0.790272
 0.0969985   0.797569
   0.10271   0.804752
  0.108755   0.811907
  0.115153    0.81919
  0.121926   0.826586
  0.129095   0.833975
  0.136683   0.841292
  0.144715   0.848587
  0.153216   0.856207
  0.162214   0.863956
  0.171739    0.87186
  0.181821   0.880116
  0.192492   0.888833
  0.203788   0.897895
  0.215744   0.907003
  0.228399   0.915674
  0.241794   0.924608
  0.255972   0.932673
   0.27098   0.942307
  0.286865   0.951267
  0.304824   0.961919
  0.324407   0.973645
  0.343989   0.984807
  0.363571   0.995529
  0.383154    1.00453
  0.402736    1.01383
  0.422319    1.02221
  0.441901    1.03037
  0.461484    1.03832
  0.481066     1.0456
  0.500648    1.05278
  0.520231    1.05992
  0.539813    1.06674
  0.559396    1.07358
  0.578978    1.07976
   0.59856    1.08581
  0.618143    1.09236
  0.637725    1.09868
  0.657308    1.10401
   0.67689    1.10876
  0.696473    1.11344
  0.716055     1.1178
  0.735637    1.12172
   0.75522    1.12533
  0.774802    1.12861
  0.794385    1.13196
  0.813967    1.13512
  0.833549    1.13783
  0.853132    1.14009
  0.872714    1.14188
  0.892297    1.14319
  0.911879    1.14419
  0.931462    1.14485
  0.951044    1.14525
  0.970626    1.14549
  0.990209    1.14576
   1.00979    1.14591
   1.02937    1.14578
   1.04896    1.14528
   1.06854    1.14435
   1.08812    1.14301
    1.1077    1.14129
   1.12729    1.13899
   1.14687    1.13637
   1.16645    1.13375
   1.18603    1.13115
   1.20562    1.12829
    1.2252    1.12471
   1.24478    1.12091
   1.26436     1.1169
   1.28395    1.11199
   1.30353    1.10649
   1.32311    1.10052
   1.34269    1.09435
   1.36228    1.08813
   1.38186    1.08163
   1.40144    1.07514
   1.42102    1.06834
   1.44061    1.06132
   1.46019    1.05396
   1.47977    1.04679
   1.49935    1.03937
   1.51894    1.03084
   1.53852    1.02199
    1.5581    1.01388
   1.57768    1.00586
   1.59727   0.997761
   1.61685   0.988603
   1.63643   0.979161
   1.65601   0.969019
    1.6756   0.959298
   1.69518    0.94918
   1.71314    0.93962
   1.72902   0.931478
   1.74403   0.922275
   1.75821   0.914219
    1.7716   0.906232
   1.78426   0.898683
   1.79621   0.890603
   1.80751   0.882852
   1.81818   0.875177
   1.82826    0.86758
   1.83779   0.860395
   1.84679   0.853131
   1.85529   0.845642
   1.86332    0.83834
   1.87091   0.831385
   1.87808   0.824536
   1.88485     0.8177
   1.89125   0.810887
   1.89729   0.804116
     1.903   0.797398
    1.9084   0.790699
    1.9135    0.78402
   1.91831   0.777338
   1.92286   0.770691
   1.92716   0.764094
   1.93122   0.757504
   1.93506   0.750926
   1.93868   0.744316
   1.94211   0.737645
   1.94534   0.730943
    1.9484   0.724199
   1.95129   0.717358
   1.95401   0.710365
   1.95659     0.7032
   1.95903   0.695849
   1.96133   0.688283
    1.9635   0.680476
   1.96555    0.67241
   1.96749   0.664064
   1.96933    0.65542
   1.97106   0.646461
   1.97269   0.637172
   1.97424   0.627542
    1.9757    0.61756
   1.97708   0.607207
   1.97838   0.596464
   1.97961    0.58531
   1.98077   0.573728
   1.98187   0.561706
   1.98291   0.549237
   1.98389   0.536317
   1.98482   0.522949
   1.98569   0.509136
   1.98652   0.494889
    1.9873   0.480225
   1.98804   0.465168
   1.98874   0.449753
    1.9894   0.434023
   1.99002   0.418031
   1.99061   0.401837
   1.99116   0.385509
   1.99169   0.369117
   1.99218   0.352738
   1.99265   0.336444
    1.9931   0.320037
   1.99355   0.303083
   1.99399   0.285407
   1.99444   0.267028
   1.99488   0.247976
   1.99533   0.228294
   1.99577   0.208035
   1.99622   0.187263
   1.99666    0.16605
   1.99711   0.144473
   1.99755   0.122607
     1.998   0.100527
   1.99844  0.0782986
   1.99889  0.0559768
   1.99933  0.0336032
   1.99978   0.011205
         2          0
