         0          0
 0.0002225 -1.40463e-05
 0.0006675 -0.000270711
 0.0011125 -0.00122152
 0.0015575 -0.00331247
 0.0020025 -0.00690053
 0.0024475 -0.0121798
 0.0028925 -0.0191358
 0.0033375 -0.0275366
 0.0037825 -0.0369755
 0.0042275 -0.0469348
 0.0046725 -0.0568739
 0.0051175 -0.0662915
 0.0055625 -0.0747876
 0.0060075 -0.0820762
 0.0064525 -0.0880026
 0.0068975 -0.0926504
 0.0073476 -0.0957693
0.00781612 -0.0973279
0.00831203  -0.097977
0.00883694 -0.0973929
0.00939255 -0.0956497
0.00998065 -0.0928511
 0.0106031 -0.0891636
  0.011262 -0.0847585
 0.0119594 -0.0798385
 0.0126977 -0.0745832
  0.013479 -0.0691756
 0.0143061 -0.0637573
 0.0151815 -0.0584579
 0.0161082  -0.053362
  0.017089 -0.0485404
 0.0181271 -0.0440255
  0.019226 -0.0398416
 0.0203891 -0.0359865
 0.0216203 -0.0324562
 0.0229234 -0.0292305
 0.0243028  -0.026292
 0.0257628 -0.0236149
 0.0273082 -0.0211815
  0.028944 -0.0189713
 0.0306754 -0.0169687
 0.0325081 -0.0151538
 0.0344479 -0.0135123
 0.0365012 -0.0120302
 0.0386746 -0.0106959
  0.040975 -0.00949707
   0.04341 -0.00842332
 0.0459873 -0.00746293
 0.0487154 -0.00660784
  0.051603 -0.0058497
 0.0546595 -0.00517719
 0.0578947 -0.00457218
 0.0613191 -0.00402786
 0.0649437 -0.00354301
 0.0687803 -0.00311208
 0.0728413 -0.00272493
 0.0771397 -0.00237132
 0.0816895 -0.00204508
 0.0865054 -0.0017512
 0.0916029 -0.00148355
 0.0969985 -0.00123137
   0.10271 -0.000996287
  0.108755 -0.000782512
  0.115153 -0.000581891
  0.121926 -0.000394992
  0.129095 -0.000214604
  0.136683 -4.56257e-05
  0.144715 0.000122571
  0.153216 0.000257982
  0.162214 0.000402807
  0.171739 0.000509951
  0.181821 0.000652485
  0.192492 0.000738609
  0.203788 0.000902803
  0.215744 0.000917242
  0.228399 0.00113414
  0.241794 0.00104694
  0.255972 0.00139421
   0.27098 0.00117147
  0.286865  0.0015025
  0.304824 0.00155014
  0.324407 0.00148658
  0.343989 0.00174961
  0.363571 0.00167548
  0.383154 0.00186892
  0.402736  0.0018441
  0.422319 0.00196411
  0.441901  0.0019805
  0.461484 0.00206057
  0.481066 0.00208061
  0.500648 0.00215188
  0.520231  0.0021749
  0.539813 0.00222119
  0.559396 0.00223643
  0.578978 0.00227715
   0.59856 0.00230242
  0.618143 0.00233266
  0.637725 0.00234971
  0.657308 0.00238017
   0.67689  0.0024112
  0.696473 0.00244435
  0.716055 0.00246405
  0.735637 0.00248926
   0.75522 0.00251179
  0.774802 0.00254231
  0.794385 0.00255802
  0.813967  0.0025759
  0.833549 0.00259199
  0.853132 0.00261663
  0.872714  0.0026342
  0.892297 0.00265052
  0.911879 0.00265897
  0.931462   0.002673
  0.951044 0.00268842
  0.970626 0.00269855
  0.990209 0.00269954
   1.00979 0.00269841
   1.02937 0.00269874
   1.04896 0.00269295
   1.06854 0.00268873
   1.08812 0.00268593
    1.1077 0.00267827
   1.12729 0.00266434
   1.14687 0.00265561
   1.16645 0.00263967
   1.18603 0.00262593
   1.20562 0.00260303
    1.2252 0.00258654
   1.24478 0.00257061
   1.26436 0.00254165
   1.28395  0.0025229
   1.30353 0.00250666
   1.32311 0.00248789
   1.34269 0.00247296
   1.36228 0.00243436
   1.38186 0.00241597
   1.40144 0.00238403
   1.42102 0.00235528
   1.44061 0.00230877
   1.46019 0.00229297
   1.47977 0.00224333
   1.49935 0.00221133
   1.51894  0.0021582
   1.53852 0.00214064
    1.5581 0.00204005
   1.57768 0.00204295
   1.59727 0.00190486
   1.61685 0.00192296
   1.63643 0.00172362
   1.65601 0.00181721
    1.6756 0.00150567
   1.69518 0.00157906
   1.71314 0.00151808
   1.72902 0.00117365
   1.74403 0.00141787
   1.75821 0.00106856
    1.7716 0.00114326
   1.78426 0.000922079
   1.79621 0.000917903
   1.80751 0.000743423
   1.81818 0.000667198
   1.82826 0.000522599
   1.83779 0.000404399
   1.84679 0.000262635
   1.85529 0.000134399
   1.86332 -1.93528e-05
   1.87091 -0.00018629
   1.87808 -0.000362952
   1.88485 -0.000548178
   1.89125 -0.000743934
   1.89729 -0.000956959
     1.903 -0.00119105
    1.9084 -0.00144438
    1.9135 -0.00171237
   1.91831 -0.00199936
   1.92286 -0.00232016
   1.92716 -0.00267591
   1.93122 -0.00306261
   1.93506 -0.00348355
   1.93868 -0.00395266
   1.94211 -0.00448161
   1.94534 -0.00507268
    1.9484 -0.00573627
   1.95129 -0.00648768
   1.95401 -0.00733422
   1.95659 -0.00828132
   1.95903 -0.00933801
   1.96133  -0.010517
    1.9635 -0.0118296
   1.96555 -0.0132885
   1.96749 -0.0149041
   1.96933 -0.0166892
   1.97106 -0.0186567
   1.97269 -0.0208245
   1.97424 -0.0232092
    1.9757 -0.0258333
   1.97708  -0.028715
   1.97838 -0.0318777
   1.97961 -0.0353366
   1.98077 -0.0391101
   1.98187 -0.0432004
   1.98291 -0.0476078
   1.98389  -0.052306
   1.98482 -0.0572604
   1.98569  -0.062399
   1.98652 -0.0676362
    1.9873 -0.0728431
   1.98804 -0.0778799
   1.98874 -0.0825675
    1.9894 -0.0867321
   1.99002 -0.0901794
   1.99061 -0.0927477
   1.99116 -0.0942818
   1.99169 -0.0946885
   1.99218 -0.0939041
   1.99265 -0.0922504
    1.9931 -0.0890979
   1.99355 -0.0844887
   1.99399  -0.078671
   1.99444 -0.0715704
   1.99488 -0.0633421
   1.99533 -0.0542646
   1.99577 -0.0447221
   1.99622 -0.0351909
   1.99666 -0.0261814
   1.99711 -0.0181795
   1.99755 -0.0115643
     1.998 -0.00654933
   1.99844 -0.00314329
   1.99889 -0.00115913
   1.99933 -0.000256916
   1.99978 -1.33338e-05
         2          0
