         0          0
 0.0002225 9.78327e-06
 0.0006675 7.7069e-05
 0.0011125 0.000193067
 0.0015575 0.00034303
 0.0020025 0.000515372
 0.0024475 0.00070077
 0.0028925 0.000892165
 0.0033375 0.00108411
 0.0037825 0.00127286
 0.0042275 0.00145578
 0.0046725 0.00163136
 0.0051175 0.00179873
 0.0055625 0.00195763
 0.0060075 0.00210805
 0.0064525  0.0022503
 0.0068975  0.0023847
 0.0073476 0.00251335
0.00781612 0.00263993
0.00831203 0.00276625
0.00883694 0.00289172
0.00939255  0.0030161
0.00998065 0.00313876
 0.0106031 0.00325932
  0.011262 0.00337721
 0.0119594 0.00349198
 0.0126977  0.0036031
  0.013479 0.00371014
 0.0143061 0.00381264
 0.0151815 0.00391022
 0.0161082 0.00400255
  0.017089 0.00408929
 0.0181271 0.00417023
  0.019226 0.00424514
 0.0203891 0.00431392
 0.0216203 0.00437645
 0.0229234 0.00443276
 0.0243028 0.00448284
 0.0257628 0.00452685
 0.0273082 0.00456489
  0.028944 0.00459714
 0.0306754 0.00462372
 0.0325081 0.00464482
 0.0344479 0.00466067
 0.0365012 0.00467159
 0.0386746 0.00467786
  0.040975  0.0046798
   0.04341 0.00467782
 0.0459873  0.0046722
 0.0487154 0.00466321
  0.051603 0.00465102
 0.0546595 0.00463603
 0.0578947 0.00461836
 0.0613191 0.00459827
 0.0649437 0.00457575
 0.0687803 0.00455102
 0.0728413 0.00452393
 0.0771397 0.00449502
 0.0816895 0.00446425
 0.0865054  0.0044324
 0.0916029 0.00439942
 0.0969985 0.00436556
   0.10271 0.00433033
  0.108755 0.00429386
  0.115153  0.0042556
  0.121926 0.00421595
  0.129095 0.00417449
  0.136683 0.00413151
  0.144715 0.00408728
  0.153216 0.00404047
  0.162214 0.00399273
  0.171739 0.00394034
  0.181821 0.00388625
  0.192492 0.00382464
  0.203788 0.00376611
  0.215744   0.003697
  0.228399 0.00364039
  0.241794 0.00355794
  0.255972 0.00350509
   0.27098  0.0034009
  0.286865 0.00340683
  0.304824  0.0032133
  0.324407 0.00319113
  0.343989 0.00306736
  0.363571 0.00298936
  0.383154 0.00288808
  0.402736 0.00280713
  0.422319 0.00271583
  0.441901 0.00263353
  0.461484 0.00254854
  0.481066 0.00246515
  0.500648 0.00238338
  0.520231 0.00230363
  0.539813 0.00222008
  0.559396 0.00213308
  0.578978  0.0020515
   0.59856 0.00197243
  0.618143 0.00189796
  0.637725 0.00182468
  0.657308 0.00175534
   0.67689  0.0016853
  0.696473 0.00161899
  0.716055 0.00154868
  0.735637 0.00148055
   0.75522 0.00141317
  0.774802 0.00135183
  0.794385 0.00129208
  0.813967 0.00123247
  0.833549  0.0011749
  0.853132 0.00112177
  0.872714 0.00107357
  0.892297 0.00103195
  0.911879 0.000994555
  0.931462 0.000963041
  0.951044 0.000937072
  0.970626 0.000918293
  0.990209 0.00090438
   1.00979 0.000896306
   1.02937 0.000894852
   1.04896 0.000900833
   1.06854 0.000915535
   1.08812 0.000937739
    1.1077 0.000966107
   1.12729 0.00100014
   1.14687 0.00103977
   1.16645  0.0010832
   1.18603 0.00113129
   1.20562 0.00118777
    1.2252 0.00125037
   1.24478 0.00131674
   1.26436 0.00139003
   1.28395 0.00146681
   1.30353 0.00154713
   1.32311 0.00162746
   1.34269 0.00170999
   1.36228 0.00179114
   1.38186 0.00187403
   1.40144 0.00195955
   1.42102 0.00204884
   1.44061 0.00213848
   1.46019 0.00223059
   1.47977 0.00232371
   1.49935 0.00242205
   1.51894 0.00251885
   1.53852 0.00261153
    1.5581 0.00270919
   1.57768 0.00280095
   1.59727 0.00289823
   1.61685 0.00298477
   1.63643 0.00309081
   1.65601  0.0031778
    1.6756 0.00330273
   1.69518 0.00330652
   1.71314 0.00348599
   1.72902 0.00346476
   1.74403 0.00354696
   1.75821 0.00358164
    1.7716 0.00364467
   1.78426 0.00368497
   1.79621 0.00373756
   1.80751 0.00378083
   1.81818 0.00383007
   1.82826 0.00387299
   1.83779 0.00391751
   1.84679 0.00395742
   1.85529 0.00399705
   1.86332 0.00403611
   1.87091 0.00407601
   1.87808 0.00411532
   1.88485 0.00415482
   1.89125 0.00419375
   1.89729 0.00423158
     1.903 0.00426878
    1.9084 0.00430503
    1.9135 0.00434006
   1.91831 0.00437333
   1.92286  0.0044054
   1.92716 0.00443582
   1.93122  0.0044643
   1.93506 0.00449021
   1.93868 0.00451341
   1.94211 0.00453365
   1.94534 0.00455093
    1.9484 0.00456519
   1.95129 0.00457671
   1.95401 0.00458538
   1.95659  0.0045909
   1.95903 0.00459276
   1.96133 0.00459064
    1.9635 0.00458434
   1.96555 0.00457357
   1.96749 0.00455793
   1.96933 0.00453707
   1.97106 0.00451072
   1.97269 0.00447864
   1.97424 0.00444064
    1.9757 0.00439653
   1.97708 0.00434622
   1.97838 0.00428966
   1.97961 0.00422691
   1.98077 0.00415802
   1.98187 0.00408313
   1.98291 0.00400239
   1.98389 0.00391601
   1.98482 0.00382423
   1.98569 0.00372738
   1.98652 0.00362579
    1.9873 0.00351986
   1.98804 0.00341005
   1.98874 0.00329679
    1.9894 0.00318062
   1.99002 0.00306196
   1.99061 0.00294138
   1.99116 0.00281924
   1.99169 0.00269613
   1.99218 0.00257229
   1.99265 0.00244827
    1.9931  0.0023223
   1.99355 0.00219078
   1.99399 0.00205165
   1.99444 0.00190464
   1.99488 0.00174943
   1.99533 0.00158607
   1.99577  0.0014148
   1.99622 0.00123653
   1.99666 0.00105272
   1.99711 0.000865954
   1.99755 0.00067988
     1.998 0.000499784
   1.99844 0.000332503
   1.99889 0.000187054
   1.99933 7.46311e-05
   1.99978 9.46737e-06
         2          0
