         0          0
 0.0002225 6.92997e-11
 0.0006675 2.6716e-08
 0.0011125 2.17352e-07
 0.0015575 7.66408e-07
 0.0020025 1.93702e-06
 0.0024475 3.93944e-06
 0.0028925 7.04556e-06
 0.0033375 1.14081e-05
 0.0037825 1.72468e-05
 0.0042275 2.46437e-05
 0.0046725 3.37363e-05
 0.0051175 4.45553e-05
 0.0055625 5.71429e-05
 0.0060075 7.15137e-05
 0.0064525 8.76053e-05
 0.0068975 0.000105459
 0.0073476 0.000124668
0.00781612 0.000146645
0.00831203 0.000172153
0.00883694 0.000200678
0.00939255 0.000233281
0.00998065 0.000269485
 0.0106031 0.00031026
  0.011262 0.000355173
 0.0119594 0.000405049
 0.0126977 0.000459482
  0.013479 0.00051911
 0.0143061 0.000583514
 0.0151815 0.000653116
 0.0161082 0.000727444
  0.017089 0.000806684
 0.0181271 0.000890273
  0.019226 0.00097816
 0.0203891 0.00106967
 0.0216203 0.00116452
 0.0229234 0.00126193
 0.0243028 0.00136142
 0.0257628 0.00146213
 0.0273082 0.00156343
  0.028944 0.00166441
 0.0306754 0.00176438
 0.0325081 0.00186245
 0.0344479 0.00195792
 0.0365012 0.00204997
 0.0386746 0.00213798
  0.040975 0.00222132
   0.04341 0.00229953
 0.0459873 0.00237222
 0.0487154 0.00243917
  0.051603 0.00250025
 0.0546595 0.00255546
 0.0578947  0.0026049
 0.0613191  0.0026488
 0.0649437 0.00268745
 0.0687803  0.0027212
 0.0728413 0.00275044
 0.0771397 0.00277551
 0.0816895 0.00279688
 0.0865054 0.00281476
 0.0916029 0.00282937
 0.0969985 0.00284077
   0.10271  0.0028492
  0.108755  0.0028544
  0.115153 0.00285674
  0.121926 0.00285596
  0.129095 0.00285282
  0.136683 0.00284705
  0.144715 0.00283932
  0.153216 0.00282801
  0.162214 0.00281481
  0.171739 0.00279682
  0.181821 0.00277773
  0.192492  0.0027522
  0.203788 0.00272775
  0.215744  0.0026932
  0.228399 0.00266487
  0.241794 0.00261756
  0.255972 0.00259413
   0.27098 0.00252382
  0.286865  0.0025197
  0.304824 0.00242658
  0.324407 0.00241372
  0.343989 0.00231452
  0.363571 0.00228399
  0.383154 0.00220788
  0.402736 0.00216714
  0.422319 0.00210302
  0.441901 0.00205901
  0.461484 0.00200021
  0.481066  0.0019542
  0.500648 0.00189829
  0.520231 0.00184956
  0.539813 0.00179479
  0.559396 0.00174479
  0.578978 0.00169108
   0.59856 0.00164109
  0.618143 0.00158894
  0.637725 0.00154118
  0.657308 0.00149145
   0.67689 0.00144555
  0.696473  0.0013985
  0.716055 0.00135501
  0.735637 0.00131104
   0.75522 0.00126867
  0.774802  0.0012268
  0.794385 0.00118787
  0.813967 0.00115039
  0.833549 0.00111651
  0.853132 0.00108499
  0.872714 0.00105693
  0.892297 0.00103099
  0.911879 0.00100826
  0.931462 0.000989109
  0.951044 0.000974674
  0.970626 0.000964799
  0.990209 0.000958531
   1.00979  0.0009553
   1.02937 0.000954987
   1.04896 0.000958719
   1.06854 0.000965525
   1.08812 0.000976777
    1.1077 0.000992029
   1.12729 0.00101172
   1.14687 0.00103509
   1.16645  0.0010619
   1.18603 0.00109124
   1.20562 0.00112374
    1.2252 0.00115833
   1.24478  0.0011971
   1.26436 0.00123847
   1.28395 0.00128336
   1.30353 0.00133036
   1.32311 0.00138139
   1.34269  0.0014338
   1.36228 0.00148948
   1.38186 0.00154311
   1.40144 0.00159996
   1.42102 0.00165539
   1.44061 0.00171542
   1.46019  0.0017724
   1.47977  0.0018342
   1.49935 0.00189084
   1.51894 0.00195552
   1.53852 0.00201077
    1.5581 0.00207729
   1.57768 0.00212913
   1.59727 0.00220099
   1.61685 0.00224678
   1.63643 0.00232682
   1.65601 0.00235781
    1.6756 0.00245757
   1.69518 0.00246573
   1.71314 0.00255621
   1.72902 0.00255435
   1.74403 0.00262184
   1.75821 0.00264155
    1.7716 0.00268441
   1.78426 0.00270785
   1.79621 0.00273716
   1.80751 0.00275698
   1.81818 0.00277784
   1.82826 0.00279355
   1.83779 0.00280768
   1.84679 0.00281758
   1.85529 0.00282572
   1.86332 0.00283093
   1.87091 0.00283421
   1.87808 0.00283453
   1.88485 0.00283238
   1.89125 0.00282736
   1.89729  0.0028198
     1.903 0.00280929
    1.9084 0.00279599
    1.9135 0.00277969
   1.91831 0.00276029
   1.92286 0.00273748
   1.92716 0.00271099
   1.93122 0.00268047
   1.93506 0.00264558
   1.93868 0.00260595
   1.94211 0.00256126
   1.94534 0.00251125
    1.9484 0.00245571
   1.95129  0.0023945
   1.95401 0.00232759
   1.95659 0.00225511
   1.95903 0.00217731
   1.96133 0.00209459
    1.9635 0.00200739
   1.96555 0.00191633
   1.96749 0.00182199
   1.96933 0.00172517
   1.97106 0.00162656
   1.97269 0.00152703
   1.97424 0.00142729
    1.9757 0.00132823
   1.97708 0.00123047
   1.97838 0.00113486
   1.97961 0.00104186
   1.98077 0.000952232
   1.98187 0.000866235
   1.98291 0.000784522
   1.98389 0.000707128
   1.98482 0.000634597
   1.98569 0.000566728
   1.98652 0.000503978
    1.9873 0.00044592
   1.98804 0.000392956
   1.98874 0.000344451
    1.9894 0.000300799
   1.99002 0.000261187
   1.99061 0.000226033
   1.99116 0.000194387
   1.99169 0.000166712
   1.99218 0.000141972
   1.99265 0.000120666
    1.9931 0.000102049
   1.99355 8.47505e-05
   1.99399 6.91656e-05
   1.99444 5.52519e-05
   1.99488 4.30695e-05
   1.99533 3.26022e-05
   1.99577 2.38087e-05
   1.99622 1.66576e-05
   1.99666 1.10152e-05
   1.99711 6.80077e-06
   1.99755 3.80141e-06
     1.998 1.86848e-06
   1.99844 7.39053e-07
   1.99889 2.09485e-07
   1.99933 2.57418e-08
   1.99978 6.60564e-11
         2          0
