         0          0
 0.0002225 -2.24948e-09
 0.0006675 -7.68126e-07
 0.0011125 -3.90216e-06
 0.0015575 -1.10363e-05
 0.0020025 -2.37814e-05
 0.0024475 -4.34813e-05
 0.0028925 -7.12343e-05
 0.0033375 -0.000107597
 0.0037825 -0.000152771
 0.0042275 -0.00020637
 0.0046725 -0.000267697
 0.0051175 -0.000335695
 0.0055625 -0.000409072
 0.0060075 -0.000486585
 0.0064525 -0.000566711
 0.0068975 -0.000648455
 0.0073476 -0.000729573
0.00781612 -0.000813954
0.00831203 -0.000902881
0.00883694 -0.0009926
0.00939255 -0.00108453
0.00998065 -0.00117537
 0.0106031 -0.00126606
  0.011262 -0.00135386
 0.0119594 -0.00143952
 0.0126977 -0.00152086
  0.013479 -0.00159863
 0.0143061 -0.00167125
 0.0151815 -0.00173951
 0.0161082 -0.00180236
  0.017089 -0.00186063
 0.0181271 -0.00191366
  0.019226 -0.00196226
 0.0203891 -0.00200609
 0.0216203 -0.00204588
 0.0229234 -0.00208145
 0.0243028 -0.00211346
 0.0257628 -0.00214182
 0.0273082 -0.00216708
  0.028944 -0.00218921
 0.0306754 -0.00220866
 0.0325081 -0.00222544
 0.0344479 -0.00223992
 0.0365012 -0.00225213
 0.0386746 -0.00226233
  0.040975 -0.00227059
   0.04341 -0.0022771
 0.0459873 -0.00228192
 0.0487154 -0.00228522
  0.051603 -0.00228705
 0.0546595 -0.00228757
 0.0578947 -0.00228681
 0.0613191 -0.00228484
 0.0649437 -0.00228168
 0.0687803 -0.00227743
 0.0728413 -0.00227213
 0.0771397 -0.00226584
 0.0816895 -0.00225851
 0.0865054 -0.00225019
 0.0916029 -0.00224088
 0.0969985 -0.00223063
   0.10271 -0.00221929
  0.108755 -0.00220697
  0.115153 -0.00219357
  0.121926 -0.00217923
  0.129095 -0.00216357
  0.136683 -0.00214694
  0.144715 -0.00212877
  0.153216 -0.00210956
  0.162214 -0.00208884
  0.171739 -0.00206693
  0.181821 -0.00204359
  0.192492 -0.00201839
  0.203788 -0.00199246
  0.215744 -0.00196275
  0.228399 -0.00193575
  0.241794 -0.00189913
  0.255972 -0.00187502
   0.27098 -0.00182357
  0.286865 -0.00181194
  0.304824 -0.00174789
  0.324407 -0.00171564
  0.343989 -0.00164895
  0.363571 -0.00161343
  0.383154 -0.00155403
  0.402736 -0.00151295
  0.422319 -0.00145803
  0.441901 -0.0014149
  0.461484 -0.00136148
  0.481066 -0.00131732
  0.500648 -0.00126524
  0.520231 -0.00121999
  0.539813 -0.00116908
  0.559396 -0.00112312
  0.578978 -0.00107298
   0.59856 -0.00102669
  0.618143 -0.000977003
  0.637725 -0.000930751
  0.657308 -0.000881969
   0.67689 -0.000835287
  0.696473 -0.000786291
  0.716055 -0.000739381
  0.735637 -0.000690738
   0.75522 -0.000643506
  0.774802 -0.000594967
  0.794385 -0.000547403
  0.813967 -0.00049915
  0.833549 -0.000451662
  0.853132 -0.000403264
  0.872714 -0.000355148
  0.892297 -0.000306838
  0.911879 -0.000258653
  0.931462 -0.000210265
  0.951044 -0.000161931
  0.970626 -0.000113354
  0.990209 -6.48149e-05
   1.00979 -1.62921e-05
   1.02937 3.21955e-05
   1.04896 8.06671e-05
   1.06854 0.000129035
   1.08812 0.000177591
    1.1077 0.000226018
   1.12729 0.000274672
   1.14687 0.000322944
   1.16645 0.000371694
   1.18603 0.00041987
   1.20562 0.000468708
    1.2252 0.000516783
   1.24478 0.000565757
   1.26436 0.000613888
   1.28395 0.000662721
   1.30353 0.000710973
   1.32311 0.000760407
   1.34269 0.000808656
   1.36228 0.00085882
   1.38186 0.00090697
   1.40144 0.000958004
   1.42102 0.00100607
   1.44061  0.0010573
   1.46019 0.00110502
   1.47977  0.0011577
   1.49935  0.0012051
   1.51894 0.00125826
   1.53852 0.00130547
    1.5581 0.00136008
   1.57768 0.00140597
   1.59727 0.00146319
   1.61685 0.00150588
   1.63643 0.00156737
   1.65601 0.00160483
    1.6756 0.00167412
   1.69518 0.00170698
   1.71314 0.00177283
   1.72902 0.00178452
   1.74403 0.00183706
   1.75821 0.00186158
    1.7716 0.00189921
   1.78426 0.00192627
   1.79621 0.00195653
   1.80751  0.0019826
   1.81818 0.00200812
   1.82826 0.00203172
   1.83779 0.00205369
   1.84679 0.00207443
   1.85529 0.00209353
   1.86332 0.00211181
   1.87091 0.00212851
   1.87808 0.00214422
   1.88485 0.00215862
   1.89125 0.00217202
   1.89729 0.00218429
     1.903 0.00219555
    1.9084 0.00220571
    1.9135  0.0022149
   1.91831 0.00222309
   1.92286 0.00223033
   1.92716 0.00223649
   1.93122 0.00224163
   1.93506  0.0022457
   1.93868 0.00224873
   1.94211 0.00225059
   1.94534 0.00225125
    1.9484 0.00225063
   1.95129 0.00224868
   1.95401 0.00224525
   1.95659  0.0022403
   1.95903 0.00223366
   1.96133  0.0022253
    1.9635 0.00221499
   1.96555 0.00220268
   1.96749  0.0021881
   1.96933 0.00217122
   1.97106 0.00215168
   1.97269 0.00212948
   1.97424 0.00210418
    1.9757 0.00207581
   1.97708 0.00204382
   1.97838 0.00200829
   1.97961 0.00196857
   1.98077 0.00192486
   1.98187 0.00187641
   1.98291 0.00182359
   1.98389 0.00176561
   1.98482 0.00170313
   1.98569 0.00163533
   1.98652 0.00156328
    1.9873 0.00148622
   1.98804 0.00140572
   1.98874 0.00132107
    1.9894 0.00123443
   1.99002 0.00114506
   1.99061  0.0010557
   1.99116 0.000965405
   1.99169 0.000877422
   1.99218 0.000790355
   1.99265 0.000707865
    1.9931 0.000628677
   1.99355 0.000549004
   1.99399 0.000471026
   1.99444 0.000395697
   1.99488 0.000324492
   1.99533 0.000258591
   1.99577 0.000199233
   1.99622 0.000147409
   1.99666 0.000103777
   1.99711 6.86815e-05
   1.99755 4.19148e-05
     1.998 2.29211e-05
   1.99844 1.06376e-05
   1.99889 3.76114e-06
   1.99933 7.40718e-07
   1.99978 2.11434e-09
         2          0
