         0          0
 0.0002225 2.87768e-08
 0.0006675 2.56927e-07
 0.0011125 7.08859e-07
 0.0015575 1.38011e-06
 0.0020025 2.26635e-06
 0.0024475 3.36312e-06
 0.0028925 4.66505e-06
 0.0033375 6.16484e-06
 0.0037825 7.85244e-06
 0.0042275 9.71467e-06
 0.0046725 1.17355e-05
 0.0051175 1.38962e-05
 0.0055625 1.61763e-05
 0.0060075 1.85537e-05
 0.0064525 2.10051e-05
 0.0068975 2.35067e-05
 0.0073476 2.60644e-05
0.00781612 2.87314e-05
0.00831203 3.15323e-05
0.00883694 3.44451e-05
0.00939255 3.74447e-05
0.00998065 4.05047e-05
 0.0106031 4.35995e-05
  0.011262 4.67062e-05
 0.0119594 4.98055e-05
 0.0126977 5.28817e-05
  0.013479 5.59228e-05
 0.0143061 5.89204e-05
 0.0151815 6.18709e-05
 0.0161082 6.47756e-05
  0.017089 6.76442e-05
 0.0181271 7.04965e-05
  0.019226 7.33697e-05
 0.0203891 7.63255e-05
 0.0216203 7.94561e-05
 0.0229234 8.28646e-05
 0.0243028 8.66203e-05
 0.0257628 9.07196e-05
 0.0273082 9.51096e-05
  0.028944 9.97426e-05
 0.0306754 0.000104636
 0.0325081 0.000109894
 0.0344479 0.000115602
 0.0365012 0.000121583
 0.0386746 0.000127266
  0.040975 0.000131869
   0.04341 0.000134711
 0.0459873 0.000135515
 0.0487154 0.000134597
  0.051603 0.000132352
 0.0546595 0.00012872
 0.0578947 0.000123982
 0.0613191 0.000118801
 0.0649437 0.000113131
 0.0687803 0.000105892
 0.0728413 9.6413e-05
 0.0771397 8.51271e-05
 0.0816895 7.2358e-05
 0.0865054 5.88166e-05
 0.0916029 4.62435e-05
 0.0969985 3.59077e-05
   0.10271 3.13207e-05
  0.108755 3.58637e-05
  0.115153 4.94865e-05
  0.121926 7.04615e-05
  0.129095 9.74058e-05
  0.136683 0.000129375
  0.144715 0.000162496
  0.153216 0.000186713
  0.162214 0.000201857
  0.171739 0.000218071
  0.181821 0.000227085
  0.192492 0.000219923
  0.203788 0.000218139
  0.215744 0.000216127
  0.228399 0.000238264
  0.241794 0.000296701
  0.255972 0.000366196
   0.27098 0.00045104
  0.286865 0.000506327
  0.304824 0.000595655
  0.324407 0.000632238
  0.343989 0.000624936
  0.363571 0.000622531
  0.383154 0.000581568
  0.402736 0.000598165
  0.422319 0.00060019
  0.441901 0.000619232
  0.461484 0.000655483
  0.481066 0.000655381
  0.500648 0.000630251
  0.520231 0.000577724
  0.539813 0.000515668
  0.559396 0.000446873
  0.578978 0.000400619
   0.59856 0.000337004
  0.618143 0.000305447
  0.637725 0.000304007
  0.657308 0.000310985
   0.67689 0.000279781
  0.696473 0.000201536
  0.716055 0.00014355
  0.735637 7.43503e-05
   0.75522 -2.52867e-06
  0.774802 -7.64476e-05
  0.794385 -0.000124743
  0.813967 -0.000146796
  0.833549 -0.0001412
  0.853132 -0.000135414
  0.872714 -0.000102542
  0.892297 -8.51078e-06
  0.911879 0.000145318
  0.931462 0.000315495
  0.951044 0.00046253
  0.970626 0.000608382
  0.990209 0.000755794
   1.00979 0.00088893
   1.02937 0.00103224
   1.04896 0.00120086
   1.06854 0.00139458
   1.08812 0.00158373
    1.1077  0.0017235
   1.12729 0.00181318
   1.14687 0.00184486
   1.16645 0.00185158
   1.18603 0.00183198
   1.20562 0.00177954
    1.2252 0.00168673
   1.24478 0.00159807
   1.26436 0.00150075
   1.28395 0.00138136
   1.30353 0.00126901
   1.32311 0.00118855
   1.34269 0.00114223
   1.36228  0.0010749
   1.38186 0.000995388
   1.40144 0.000944749
   1.42102 0.000866471
   1.44061 0.000724147
   1.46019 0.00058759
   1.47977 0.00044488
   1.49935 0.000328669
   1.51894 0.00024359
   1.53852 0.000127176
    1.5581 -3.1209e-06
   1.57768 -0.000123275
   1.59727 -0.000244916
   1.61685 -0.000384285
   1.63643 -0.000475564
   1.65601 -0.000625728
    1.6756 -0.000812179
   1.69518 -0.000955582
   1.71314 -0.00101968
   1.72902 -0.00109326
   1.74403 -0.00117288
   1.75821 -0.00123482
    1.7716 -0.00124199
   1.78426 -0.00123021
   1.79621 -0.00122387
   1.80751 -0.00123318
   1.81818 -0.00125239
   1.82826 -0.00125691
   1.83779 -0.00124717
   1.84679  -0.001232
   1.85529 -0.00121232
   1.86332 -0.00119282
   1.87091 -0.00117555
   1.87808 -0.00115889
   1.88485 -0.00113576
   1.89125 -0.00110648
   1.89729 -0.00107364
     1.903 -0.00103954
    1.9084 -0.00100617
    1.9135 -0.000973397
   1.91831 -0.000942291
   1.92286 -0.000913433
   1.92716 -0.000886665
   1.93122 -0.000861104
   1.93506 -0.000836341
   1.93868 -0.000811918
   1.94211 -0.000787699
   1.94534 -0.000763886
    1.9484 -0.000740431
   1.95129 -0.000717145
   1.95401 -0.000694149
   1.95659 -0.000671579
   1.95903 -0.000649408
   1.96133 -0.000627428
    1.9635 -0.000605375
   1.96555 -0.000582973
   1.96749 -0.00056014
   1.96933 -0.00053706
   1.97106 -0.000514082
   1.97269 -0.000491518
   1.97424 -0.000469589
    1.9757 -0.000448409
   1.97708 -0.000428005
   1.97838 -0.000408335
   1.97961 -0.00038933
   1.98077 -0.000370907
   1.98187 -0.000352995
   1.98291 -0.000335532
   1.98389 -0.000318457
   1.98482 -0.0003017
   1.98569 -0.000285198
   1.98652 -0.000268906
    1.9873 -0.000252809
   1.98804 -0.000236924
   1.98874 -0.000221291
    1.9894 -0.000205966
   1.99002 -0.000191015
   1.99061 -0.000176507
   1.99116 -0.000162509
   1.99169 -0.000149083
   1.99218 -0.00013628
   1.99265 -0.000124142
    1.9931 -0.00011251
   1.99355 -0.000101101
   1.99399 -8.98569e-05
   1.99444 -7.88576e-05
   1.99488 -6.81925e-05
   1.99533 -5.79574e-05
   1.99577 -4.8254e-05
   1.99622 -3.91879e-05
   1.99666 -3.0865e-05
   1.99711 -2.33868e-05
   1.99755 -1.68447e-05
     1.998 -1.13144e-05
   1.99844 -6.85229e-06
   1.99889 -3.49372e-06
   1.99933 -1.25529e-06
   1.99978 -1.39039e-07
         2          0
