         0          0
 0.0002225 0.000151657
 0.0006675 0.00136279
 0.0011125 0.00377985
 0.0015575 0.00739162
 0.0020025   0.012175
 0.0024475  0.0180902
 0.0028925  0.0250775
 0.0033375  0.0330564
 0.0037825  0.0419272
 0.0042275  0.0515749
 0.0046725  0.0618743
 0.0051175  0.0726956
 0.0055625  0.0839104
 0.0060075  0.0953961
 0.0064525    0.10704
 0.0068975   0.118742
 0.0073476    0.13055
0.00781612   0.142734
0.00831203    0.15543
0.00883694   0.168575
0.00939255   0.182099
0.00998065   0.195927
 0.0106031   0.209984
  0.011262   0.224197
 0.0119594   0.238493
 0.0126977   0.252809
  0.013479   0.267084
 0.0143061   0.281269
 0.0151815   0.295319
 0.0161082   0.309198
  0.017089   0.322879
 0.0181271   0.336337
  0.019226   0.349559
 0.0203891   0.362531
 0.0216203    0.37525
 0.0229234   0.387711
 0.0243028   0.399915
 0.0257628   0.411867
 0.0273082   0.423572
  0.028944   0.435039
 0.0306754   0.446281
 0.0325081    0.45731
 0.0344479   0.468142
 0.0365012   0.478792
 0.0386746    0.48928
  0.040975   0.499626
   0.04341    0.50985
 0.0459873   0.519976
 0.0487154   0.530028
  0.051603    0.54003
 0.0546595   0.550006
 0.0578947    0.55998
 0.0613191   0.569977
 0.0649437   0.580022
 0.0687803   0.590143
 0.0728413    0.60036
 0.0771397   0.610694
 0.0816895   0.621164
 0.0865054   0.631792
 0.0916029   0.642598
 0.0969985   0.653597
   0.10271   0.664807
  0.108755   0.676246
  0.115153    0.68792
  0.121926   0.699843
  0.129095   0.712021
  0.136683   0.724474
  0.144715   0.737212
  0.153216   0.750268
  0.162214   0.763611
  0.171739   0.777272
  0.181821    0.79118
  0.192492   0.805445
  0.203788   0.819942
  0.215744   0.835013
  0.228399   0.850146
  0.241794   0.866217
  0.255972   0.881791
   0.27098   0.899222
  0.286865   0.915366
  0.304824   0.934549
  0.324407   0.955187
  0.343989   0.973528
  0.363571   0.992065
  0.383154    1.00882
  0.402736    1.02567
  0.422319    1.04138
  0.441901    1.05692
  0.461484    1.07177
  0.481066    1.08648
  0.500648    1.10061
  0.520231    1.11453
  0.539813    1.12799
  0.559396     1.1412
  0.578978    1.15396
   0.59856    1.16643
  0.618143    1.17849
  0.637725    1.19023
  0.657308    1.20152
   0.67689    1.21236
  0.696473    1.22277
  0.716055    1.23284
  0.735637    1.24245
   0.75522    1.25158
  0.774802    1.26019
  0.794385    1.26833
  0.813967    1.27591
  0.833549     1.2829
  0.853132    1.28924
  0.872714    1.29501
  0.892297    1.30018
  0.911879     1.3047
  0.931462    1.30845
  0.951044    1.31137
  0.970626    1.31349
  0.990209    1.31484
   1.00979    1.31534
   1.02937    1.31501
   1.04896    1.31387
   1.06854    1.31189
   1.08812    1.30906
    1.1077    1.30543
   1.12729    1.30103
   1.14687     1.2958
   1.16645    1.28978
   1.18603    1.28297
   1.20562    1.27548
    1.2252    1.26729
   1.24478    1.25848
   1.26436    1.24917
   1.28395    1.23927
   1.30353    1.22881
   1.32311    1.21787
   1.34269    1.20648
   1.36228    1.19475
   1.38186    1.18249
   1.40144    1.16981
   1.42102    1.15666
   1.44061    1.14309
   1.46019    1.12887
   1.47977    1.11431
   1.49935     1.0992
   1.51894    1.08366
   1.53852    1.06748
    1.5581    1.05104
   1.57768    1.03367
   1.59727    1.01634
   1.61685   0.997912
   1.63643   0.979624
   1.65601   0.959592
    1.6756   0.940302
   1.69518   0.918736
   1.71314   0.898959
   1.72902   0.882408
   1.74403   0.864569
   1.75821   0.848793
    1.7716   0.832686
   1.78426   0.817586
   1.79621   0.802598
   1.80751   0.788289
   1.81818   0.774266
   1.82826   0.760688
   1.83779   0.747411
   1.84679   0.734461
   1.85529     0.7218
   1.86332   0.709456
   1.87091   0.697409
   1.87808   0.685639
   1.88485   0.674123
   1.89125   0.662849
   1.89729   0.651802
     1.903   0.640968
    1.9084   0.630326
    1.9135   0.619853
   1.91831   0.609534
   1.92286   0.599356
   1.92716   0.589298
   1.93122   0.579337
   1.93506   0.569453
   1.93868   0.559627
   1.94211    0.54984
   1.94534   0.540067
    1.9484   0.530286
   1.95129   0.520471
   1.95401   0.510598
   1.95659   0.500643
   1.95903   0.490583
   1.96133   0.480395
    1.9635    0.47006
   1.96555   0.459559
   1.96749   0.448872
   1.96933   0.437985
   1.97106   0.426882
   1.97269   0.415552
   1.97424   0.403984
    1.9757   0.392171
   1.97708   0.380108
   1.97838   0.367791
   1.97961    0.35522
   1.98077     0.3424
   1.98187   0.329337
   1.98291   0.316043
   1.98389   0.302534
   1.98482   0.288834
   1.98569   0.274972
   1.98652   0.260986
    1.9873   0.246918
   1.98804    0.23282
   1.98874   0.218753
    1.9894    0.20478
   1.99002   0.190971
   1.99061     0.1774
   1.99116    0.16414
   1.99169   0.151264
   1.99218   0.138839
   1.99265   0.126928
    1.9931   0.115395
   1.99355   0.103977
   1.99399  0.0926252
   1.99444  0.0814387
   1.99488  0.0705262
   1.99533  0.0600059
   1.99577  0.0500011
   1.99622  0.0406363
   1.99666   0.032031
   1.99711  0.0242951
   1.99755  0.0175233
     1.998  0.0117924
   1.99844  0.0071589
   1.99889 0.00366074
   1.99933 0.00131983
   1.99978 0.000146876
         2          0
