         0          0
 0.0002225 1.62074e-06
 0.0006675 4.86261e-06
 0.0011125 8.10756e-06
 0.0015575 1.13604e-05
 0.0020025 1.4627e-05
 0.0024475 1.79128e-05
 0.0028925 2.12215e-05
 0.0033375 2.45539e-05
 0.0037825 2.79075e-05
 0.0042275 3.12757e-05
 0.0046725 3.46483e-05
 0.0051175 3.80121e-05
 0.0055625 4.13517e-05
 0.0060075 4.46499e-05
 0.0064525 4.78889e-05
 0.0068975 5.10507e-05
 0.0073476 5.4153e-05
0.00781612 5.72633e-05
0.00831203 6.04065e-05
0.00883694 6.35528e-05
0.00939255 6.66719e-05
0.00998065 6.97362e-05
 0.0106031 7.2724e-05
  0.011262 7.5621e-05
 0.0119594 7.84212e-05
 0.0126977 8.11236e-05
  0.013479 8.37287e-05
 0.0143061 8.62349e-05
 0.0151815 8.86394e-05
 0.0161082 9.09434e-05
  0.017089 9.31627e-05
 0.0181271 9.53375e-05
  0.019226 9.75385e-05
 0.0203891 9.98697e-05
 0.0216203 0.00010246
 0.0229234 0.000105428
 0.0243028 0.000108831
 0.0257628 0.000112652
 0.0273082 0.00011686
  0.028944 0.000121494
 0.0306754 0.000126676
 0.0325081 0.000132543
 0.0344479 0.000139086
 0.0365012 0.000145929
 0.0386746 0.000152207
  0.040975 0.000156813
   0.04341 0.000158924
 0.0459873 0.000158383
 0.0487154 0.000155742
  0.051603 0.000151534
 0.0546595 0.000145727
 0.0578947 0.000138711
 0.0613191 0.000131201
 0.0649437 0.000122944
 0.0687803 0.00011267
 0.0728413 9.98568e-05
 0.0771397 8.49755e-05
 0.0816895 6.82819e-05
 0.0865054 5.10066e-05
 0.0916029 3.56352e-05
 0.0969985 2.32913e-05
   0.10271 1.81128e-05
  0.108755 2.35506e-05
  0.115153 3.91807e-05
  0.121926 6.31105e-05
  0.129095 9.39427e-05
  0.136683 0.000129866
  0.144715 0.000165708
  0.153216 0.000191943
  0.162214 0.00021023
  0.171739 0.000231314
  0.181821 0.000245757
  0.192492 0.000243067
  0.203788 0.000246179
  0.215744 0.000247088
  0.228399 0.000274084
  0.241794 0.00033705
  0.255972 0.000406853
   0.27098 0.000488797
  0.286865 0.000541196
  0.304824 0.000630483
  0.324407 0.000657298
  0.343989 0.000636462
  0.363571 0.000625223
  0.383154 0.000581695
  0.402736 0.000592704
  0.422319 0.000585265
  0.441901 0.000597433
  0.461484 0.000623377
  0.481066 0.000614753
  0.500648 0.000586868
  0.520231 0.000535977
  0.539813 0.00047528
  0.559396 0.000406199
  0.578978 0.000360066
   0.59856 0.000302331
  0.618143 0.000272549
  0.637725 0.000274638
  0.657308 0.000287299
   0.67689 0.000263203
  0.696473 0.000194615
  0.716055 0.000142199
  0.735637 7.99935e-05
   0.75522 1.20691e-05
  0.774802 -5.38621e-05
  0.794385 -9.75606e-05
  0.813967 -0.0001177
  0.833549 -0.000112865
  0.853132 -0.000108185
  0.872714 -8.07226e-05
  0.892297 2.34593e-07
  0.911879 0.000133947
  0.931462 0.000282067
  0.951044 0.000409293
  0.970626 0.000535869
  0.990209 0.000665776
   1.00979 0.000783739
   1.02937 0.000909604
   1.04896 0.00105881
   1.06854 0.00123131
   1.08812 0.00139968
    1.1077 0.00152512
   1.12729 0.00160708
   1.14687  0.0016376
   1.16645 0.00164638
   1.18603  0.0016344
   1.20562 0.00159522
    1.2252 0.00151885
   1.24478 0.00144581
   1.26436 0.00136453
   1.28395 0.00126294
   1.30353  0.0011659
   1.32311 0.00109303
   1.34269 0.00105146
   1.36228 0.00099256
   1.38186 0.000926167
   1.40144 0.000887256
   1.42102 0.000821477
   1.44061 0.000694447
   1.46019 0.000573522
   1.47977 0.000446174
   1.49935 0.000341247
   1.51894 0.000263288
   1.53852 0.000152264
    1.5581 2.73775e-05
   1.57768 -8.76038e-05
   1.59727 -0.000201477
   1.61685 -0.000336066
   1.63643 -0.000430045
   1.65601 -0.000595985
    1.6756 -0.000802118
   1.69518 -0.000961604
   1.71314 -0.00104481
   1.72902 -0.00113797
   1.74403 -0.00123786
   1.75821 -0.00131942
    1.7716 -0.00134436
   1.78426 -0.00134585
   1.79621 -0.00135224
   1.80751 -0.00137406
   1.81818 -0.00140688
   1.82826 -0.00142303
   1.83779 -0.00142138
   1.84679 -0.00141419
   1.85529 -0.00140131
   1.86332 -0.00138897
   1.87091 -0.00137903
   1.87808 -0.00137065
   1.88485 -0.00135491
   1.89125 -0.00133194
   1.89729 -0.00130492
     1.903 -0.00127605
    1.9084 -0.00124752
    1.9135 -0.00121905
   1.91831 -0.00119132
   1.92286 -0.00116524
   1.92716 -0.00114108
   1.93122 -0.00111815
   1.93506 -0.00109575
   1.93868 -0.00107349
   1.94211 -0.00105123
   1.94534 -0.00102927
    1.9484 -0.00100758
   1.95129 -0.000985819
   1.95401 -0.000963902
   1.95659 -0.000942099
   1.95903 -0.000920495
   1.96133 -0.000898862
    1.9635 -0.000876859
   1.96555 -0.000854139
   1.96749 -0.000830578
   1.96933 -0.000806419
   1.97106 -0.000782093
   1.97269 -0.000757995
   1.97424 -0.000734414
    1.9757 -0.000711523
   1.97708 -0.000689385
   1.97838 -0.000667986
   1.97961 -0.000647281
   1.98077 -0.000627208
   1.98187 -0.000607697
   1.98291 -0.000588664
   1.98389 -0.00057001
   1.98482 -0.00055162
   1.98569 -0.000533379
   1.98652 -0.000515189
    1.9873 -0.000496976
   1.98804 -0.000478706
   1.98874 -0.00046038
    1.9894 -0.000442025
   1.99002 -0.000423693
   1.99061 -0.000405445
   1.99116 -0.000387351
   1.99169 -0.000369475
   1.99218 -0.000351882
   1.99265 -0.000334626
    1.9931 -0.000317471
   1.99355 -0.000299954
   1.99399 -0.000281887
   1.99444 -0.000263283
   1.99488 -0.000244156
   1.99533 -0.000224531
   1.99577 -0.000204441
   1.99622 -0.000183924
   1.99666 -0.00016303
   1.99711 -0.000141813
   1.99755 -0.000120335
     1.998 -9.86554e-05
   1.99844 -7.68342e-05
   1.99889 -5.49235e-05
   1.99933 -3.29654e-05
   1.99978 -1.09894e-05
         2          0
