         0          0
 0.0002225 -1.91154e-09
 0.0006675 -7.52165e-07
 0.0011125 -3.81709e-06
 0.0015575 -1.0806e-05
 0.0020025 -2.32864e-05
 0.0024475 -4.25971e-05
 0.0028925 -6.97964e-05
 0.0033375 -0.000105462
 0.0037825 -0.000149764
 0.0042275 -0.000202366
 0.0046725 -0.000262547
 0.0051175 -0.000329319
 0.0055625 -0.000401368
 0.0060075 -0.000477531
 0.0064525 -0.000556256
 0.0068975 -0.000636628
 0.0073476 -0.000716378
0.00781612 -0.000799396
0.00831203 -0.00088688
0.00883694 -0.000975207
0.00939255 -0.0010657
0.00998065 -0.00115519
 0.0106031 -0.00124453
  0.011262 -0.00133107
 0.0119594 -0.00141548
 0.0126977 -0.00149568
  0.013479 -0.00157233
 0.0143061 -0.00164393
 0.0151815 -0.00171119
 0.0161082 -0.00177312
  0.017089 -0.00183046
 0.0181271 -0.00188262
  0.019226 -0.00193034
 0.0203891 -0.00197331
 0.0216203 -0.0020122
 0.0229234 -0.00204689
 0.0243028 -0.00207798
 0.0257628 -0.00210542
 0.0273082 -0.00212971
  0.028944 -0.00215086
 0.0306754 -0.00216926
 0.0325081 -0.00218496
 0.0344479 -0.00219827
 0.0365012 -0.00220924
 0.0386746 -0.00221811
  0.040975 -0.00222494
   0.04341 -0.00222992
 0.0459873 -0.00223312
 0.0487154 -0.00223467
  0.051603 -0.00223463
 0.0546595 -0.00223311
 0.0578947 -0.00223015
 0.0613191 -0.00222583
 0.0649437 -0.00222016
 0.0687803 -0.00221322
 0.0728413 -0.00220506
 0.0771397 -0.00219571
 0.0816895 -0.00218517
 0.0865054 -0.00217345
 0.0916029 -0.00216051
 0.0969985 -0.00214641
   0.10271 -0.00213102
  0.108755 -0.00211445
  0.115153 -0.0020966
  0.121926 -0.00207762
  0.129095 -0.00205721
  0.136683 -0.00203566
  0.144715 -0.00201251
  0.153216 -0.00198832
  0.162214 -0.00196253
  0.171739 -0.00193558
  0.181821 -0.0019072
  0.192492 -0.00187725
  0.203788 -0.00184684
  0.215744 -0.00181302
  0.228399 -0.00178219
  0.241794 -0.00174212
  0.255972 -0.0017155
   0.27098 -0.0016622
  0.286865 -0.00164978
  0.304824 -0.00158584
  0.324407 -0.00155465
  0.343989 -0.00149146
  0.363571 -0.00145789
  0.383154 -0.00140346
  0.402736 -0.0013664
  0.422319 -0.00131688
  0.441901 -0.00127831
  0.461484 -0.00123109
  0.481066 -0.00119183
  0.500648 -0.00114601
  0.520231 -0.00110569
  0.539813 -0.00106111
  0.559396   -0.00102
  0.578978 -0.000975634
   0.59856 -0.000933852
  0.618143 -0.000889462
  0.637725 -0.000847101
  0.657308 -0.000803062
   0.67689 -0.000760327
  0.696473 -0.00071595
  0.716055 -0.000672738
  0.735637 -0.000628245
   0.75522 -0.000584268
  0.774802 -0.000539372
  0.794385 -0.000494525
  0.813967 -0.000449148
  0.833549 -0.000403778
  0.853132 -0.000357904
  0.872714 -0.000312047
  0.892297 -0.000265978
  0.911879 -0.000219883
  0.931462 -0.000173742
  0.951044 -0.000127387
  0.970626 -8.11287e-05
  0.990209 -3.46916e-05
   1.00979 1.16353e-05
   1.02937 5.81267e-05
   1.04896 0.000104496
   1.06854 0.000150901
   1.08812 0.000197296
    1.1077 0.000243694
   1.12729 0.000290045
   1.14687 0.000336136
   1.16645 0.00038232
   1.18603 0.000428164
   1.20562 0.000474426
    1.2252 0.000520004
   1.24478 0.000566124
   1.26436 0.000611229
   1.28395 0.000657034
   1.30353 0.00070196
   1.32311 0.000747883
   1.34269 0.000792434
   1.36228 0.000838588
   1.38186 0.000882742
   1.40144 0.000929238
   1.42102 0.000973068
   1.44061  0.0010197
   1.46019 0.00106278
   1.47977 0.00111004
   1.49935 0.00115216
   1.51894  0.0011999
   1.53852 0.00124147
    1.5581 0.00129028
   1.57768 0.00133042
   1.59727 0.00138203
   1.61685 0.00141944
   1.63643 0.00147537
   1.65601 0.00150832
    1.6756 0.00157288
   1.69518 0.00160281
   1.71314 0.00166676
   1.72902 0.00167796
   1.74403 0.00173027
   1.75821 0.00175563
    1.7716 0.00179431
   1.78426 0.00182361
   1.79621 0.00185592
   1.80751 0.00188485
   1.81818  0.0019133
   1.82826  0.0019401
   1.83779 0.00196558
   1.84679 0.00198996
   1.85529 0.00201274
   1.86332 0.00203458
   1.87091 0.00205482
   1.87808 0.00207402
   1.88485 0.00209181
   1.89125 0.00210852
   1.89729 0.00212395
     1.903 0.00213827
    1.9084 0.00215136
    1.9135 0.00216333
   1.91831 0.00217415
   1.92286 0.00218385
   1.92716 0.00219237
   1.93122 0.00219974
   1.93506 0.00220593
   1.93868 0.00221091
   1.94211 0.00221461
   1.94534   0.002217
    1.9484   0.002218
   1.95129 0.00221757
   1.95401 0.00221557
   1.95659 0.00221195
   1.95903 0.00220656
   1.96133 0.00219934
    1.9635 0.00219011
   1.96555 0.00217882
   1.96749 0.00216522
   1.96933 0.00214925
   1.97106 0.00213061
   1.97269 0.00210927
   1.97424 0.00208482
    1.9757 0.00205726
   1.97708 0.00202609
   1.97838 0.00199135
   1.97961 0.00195244
   1.98077 0.00190951
   1.98187 0.00186186
   1.98291 0.00180983
   1.98389 0.00175266
   1.98482 0.00169095
   1.98569 0.00162397
   1.98652  0.0015527
    1.9873 0.00147644
   1.98804  0.0013967
   1.98874 0.00131284
    1.9894 0.00122692
   1.99002 0.00113829
   1.99061  0.0010496
   1.99116 0.000959986
   1.99169 0.000872601
   1.99218 0.00078613
   1.99265 0.00070415
    1.9931 0.000625462
   1.99355 0.000546237
   1.99399 0.000468708
   1.99444 0.000393768
   1.99488 0.00032294
   1.99533 0.000257353
   1.99577 0.000198289
   1.99622 0.000146698
   1.99666 0.000103276
   1.99711 6.83352e-05
   1.99755 4.17005e-05
     1.998 2.27943e-05
   1.99844 1.05782e-05
   1.99889 3.73664e-06
   1.99933 7.36535e-07
   1.99978 1.83892e-09
         2          0
