         0          0
 0.0002225 2.37391e-05
 0.0006675 0.00021237
 0.0011125 0.000587687
 0.0015575 0.00114658
 0.0020025 0.00188223
 0.0024475 0.00278221
 0.0028925 0.00382747
 0.0033375 0.00499243
 0.0037825 0.00624631
 0.0042275  0.0075552
 0.0046725 0.00888458
 0.0051175  0.0102017
 0.0055625  0.0114775
 0.0060075   0.012688
 0.0064525  0.0138151
 0.0068975   0.014846
 0.0073476  0.0157839
0.00781612  0.0166451
0.00831203    0.01743
0.00883694  0.0181244
0.00939255  0.0187171
0.00998065     0.0192
 0.0106031  0.0195686
  0.011262  0.0198217
 0.0119594  0.0199618
 0.0126977  0.0199941
  0.013479  0.0199261
 0.0143061  0.0197673
 0.0151815  0.0195281
 0.0161082  0.0192195
  0.017089  0.0188525
 0.0181271  0.0184375
  0.019226  0.0179847
 0.0203891  0.0175029
 0.0216203  0.0170005
 0.0229234  0.0164845
 0.0243028  0.0159613
 0.0257628  0.0154363
 0.0273082  0.0149144
  0.028944  0.0143996
 0.0306754  0.0138953
 0.0325081  0.0134046
 0.0344479    0.01293
 0.0365012  0.0124734
 0.0386746  0.0120367
  0.040975  0.0116211
   0.04341  0.0112278
 0.0459873  0.0108575
 0.0487154  0.0105103
  0.051603  0.0101859
 0.0546595 0.00988391
 0.0578947 0.00960337
 0.0613191  0.0093434
 0.0649437 0.00910289
 0.0687803 0.00888067
 0.0728413 0.00867535
 0.0771397 0.00848591
 0.0816895 0.00831065
 0.0865054 0.00814837
 0.0916029 0.00799785
 0.0969985 0.00785861
   0.10271 0.00772851
  0.108755 0.00760674
  0.115153 0.00749089
  0.121926 0.00738212
  0.129095 0.00727819
  0.136683 0.00717994
  0.144715 0.00708266
  0.153216 0.00698692
  0.162214 0.00688953
  0.171739 0.00679337
  0.181821 0.00669776
  0.192492 0.00660087
  0.203788 0.00650608
  0.215744 0.00640139
  0.228399 0.00631019
  0.241794 0.00619202
  0.255972 0.00610973
   0.27098 0.00596615
  0.286865 0.00592733
  0.304824 0.00566788
  0.324407 0.00557715
  0.343989 0.00538355
  0.363571 0.00522982
  0.383154 0.00504977
  0.402736 0.00488984
  0.422319 0.00472445
  0.441901 0.00456827
  0.461484 0.00441187
  0.481066 0.00425789
  0.500648 0.00410972
  0.520231 0.00396354
  0.539813 0.00381581
  0.559396 0.00366848
  0.578978 0.00352431
   0.59856  0.0033816
  0.618143  0.0032405
  0.637725 0.00309851
  0.657308 0.00295916
   0.67689  0.0028213
  0.696473 0.00268572
  0.716055 0.00255231
  0.735637 0.00242362
   0.75522  0.0022994
  0.774802 0.00217608
  0.794385 0.00205579
  0.813967 0.00194203
  0.833549 0.00183635
  0.853132 0.00173914
  0.872714 0.00165009
  0.892297 0.00157002
  0.911879 0.00150044
  0.931462 0.00144285
  0.951044 0.00139779
  0.970626 0.00136468
  0.990209 0.00134374
   1.00979 0.00133555
   1.02937 0.00134104
   1.04896 0.00136062
   1.06854 0.00139452
   1.08812 0.00144161
    1.1077   0.001501
   1.12729 0.00157182
   1.14687 0.00165385
   1.16645 0.00174501
   1.18603 0.00184468
   1.20562 0.00195316
    1.2252 0.00206796
   1.24478 0.00219095
   1.26436 0.00231998
   1.28395 0.00245188
   1.30353 0.00258582
   1.32311 0.00272143
   1.34269 0.00285927
   1.36228 0.00299851
   1.38186 0.00313877
   1.40144 0.00328383
   1.42102 0.00343017
   1.44061 0.00357956
   1.46019 0.00373097
   1.47977 0.00388244
   1.49935 0.00403588
   1.51894 0.00419225
   1.53852 0.00434953
    1.5581 0.00451017
   1.57768 0.00467381
   1.59727 0.00484907
   1.61685 0.00500751
   1.63643 0.00517961
   1.65601 0.00532643
    1.6756 0.00552031
   1.69518 0.00560507
   1.71314 0.00586186
   1.72902 0.00589467
   1.74403 0.00603397
   1.75821 0.00611464
    1.7716 0.00623066
   1.78426 0.00631923
   1.79621 0.00642014
   1.80751 0.00651133
   1.81818 0.00660348
   1.82826 0.00669281
   1.83779 0.00678122
   1.84679 0.00687231
   1.85529 0.00696362
   1.86332  0.0070591
   1.87091 0.00715768
   1.87808 0.00726211
   1.88485 0.00737118
   1.89125  0.0074866
   1.89729 0.00760806
     1.903 0.00773791
    1.9084  0.0078771
    1.9135 0.00802714
   1.91831 0.00818839
   1.92286 0.00836241
   1.92716 0.00855061
   1.93122 0.00875448
   1.93506 0.00897537
   1.93868 0.00921482
   1.94211 0.00947409
   1.94534 0.00975435
    1.9484  0.0100564
   1.95129  0.0103808
   1.95401  0.0107276
   1.95659  0.0110971
   1.95903  0.0114889
   1.96133  0.0119024
    1.9635  0.0123365
   1.96555  0.0127901
   1.96749  0.0132612
   1.96933  0.0137479
   1.97106  0.0142476
   1.97269  0.0147575
   1.97424  0.0152739
    1.9757  0.0157929
   1.97708  0.0163098
   1.97838  0.0168191
   1.97961  0.0173146
   1.98077  0.0177891
   1.98187  0.0182345
   1.98291  0.0186418
   1.98389  0.0190012
   1.98482  0.0193022
   1.98569  0.0195339
   1.98652  0.0196856
    1.9873  0.0197467
   1.98804  0.0197084
   1.98874   0.019563
    1.9894  0.0193057
   1.99002  0.0189343
   1.99061  0.0184502
   1.99116  0.0178581
   1.99169  0.0171662
   1.99218  0.0163859
   1.99265  0.0155313
    1.9931  0.0146021
   1.99355  0.0135822
   1.99399  0.0124687
   1.99444  0.0112744
   1.99488  0.0100171
   1.99533 0.00872058
   1.99577 0.00741325
   1.99622 0.00612718
   1.99666 0.00489605
   1.99711 0.00375289
   1.99755 0.00272765
     1.998 0.00184516
   1.99844 0.00112395
   1.99889 0.00057608
   1.99933 0.000208176
   1.99978  2.327e-05
         2          0
