         0          0
 0.0002225 6.83566e-11
 0.0006675 2.63457e-08
 0.0011125 2.14348e-07
 0.0015575 7.55801e-07
 0.0020025 1.91022e-06
 0.0024475 3.88489e-06
 0.0028925  6.948e-06
 0.0033375 1.12501e-05
 0.0037825 1.70078e-05
 0.0042275 2.43021e-05
 0.0046725 3.32687e-05
 0.0051175 4.39377e-05
 0.0055625 5.63511e-05
 0.0060075 7.05232e-05
 0.0064525 8.63928e-05
 0.0068975 0.000104001
 0.0073476 0.000122946
0.00781612 0.000144623
0.00831203 0.000169784
0.00883694 0.000197923
0.00939255 0.000230088
0.00998065 0.000265809
 0.0106031 0.000306043
  0.011262 0.000350368
 0.0119594 0.000399599
 0.0126977 0.000453336
  0.013479 0.000512213
 0.0143061 0.00057582
 0.0151815 0.000644576
 0.0161082 0.000718018
  0.017089 0.000796336
 0.0181271 0.000878977
  0.019226 0.000965895
 0.0203891 0.00105643
 0.0216203  0.0011503
 0.0229234 0.00124675
 0.0243028  0.0013453
 0.0257628 0.00144509
 0.0273082 0.00154551
  0.028944 0.00164565
 0.0306754 0.00174483
 0.0325081 0.00184215
 0.0344479 0.00193691
 0.0365012 0.00202834
 0.0386746 0.00211581
  0.040975 0.00219868
   0.04341  0.0022765
 0.0459873 0.00234886
 0.0487154 0.00241554
  0.051603 0.00247639
 0.0546595  0.0025314
 0.0578947 0.00258068
 0.0613191 0.00262443
 0.0649437 0.00266294
 0.0687803 0.00269655
 0.0728413 0.00272562
 0.0771397 0.00275047
 0.0816895 0.00277155
 0.0865054 0.00278916
 0.0916029 0.00280363
 0.0969985 0.00281503
   0.10271 0.00282364
  0.108755 0.00282932
  0.115153 0.00283249
  0.121926 0.00283284
  0.129095 0.00283086
  0.136683 0.00282598
  0.144715 0.00281902
  0.153216 0.00280852
  0.162214 0.00279622
  0.171739 0.00277913
  0.181821 0.00276072
  0.192492 0.00273599
  0.203788 0.00271228
  0.215744 0.00267847
  0.228399 0.00265084
  0.241794 0.00260396
  0.255972  0.0025819
   0.27098 0.00251245
  0.286865 0.00251062
  0.304824 0.00241905
  0.324407 0.00241002
  0.343989 0.00231259
  0.363571 0.00228371
  0.383154 0.00220914
  0.402736 0.00216792
  0.422319  0.0021036
  0.441901 0.00205917
  0.461484 0.00199891
  0.481066 0.00195149
  0.500648 0.00189401
  0.520231 0.00184373
  0.539813 0.00178748
  0.559396 0.00173645
  0.578978 0.00168176
   0.59856 0.00163126
  0.618143 0.00157865
  0.637725  0.0015304
  0.657308  0.0014807
   0.67689 0.00143504
  0.696473 0.00138857
  0.716055 0.00134498
  0.735637 0.00130116
   0.75522  0.0012595
  0.774802 0.00121877
  0.794385 0.00118069
  0.813967 0.00114377
  0.833549 0.00111055
  0.853132 0.00107957
  0.872714 0.00105219
  0.892297 0.00102733
  0.911879 0.00100589
  0.931462 0.000987684
  0.951044 0.000973618
  0.970626 0.000963795
  0.990209 0.000957697
   1.00979 0.000955038
   1.02937 0.000955786
   1.04896 0.000960714
   1.06854 0.000969093
   1.08812 0.000982057
    1.1077 0.000998972
   1.12729 0.00102023
   1.14687 0.00104471
   1.16645 0.00107305
   1.18603 0.00110407
   1.20562  0.0011388
    1.2252 0.00117541
   1.24478 0.00121544
   1.26436 0.00125745
   1.28395 0.00130297
   1.30353 0.00135039
   1.32311 0.00140125
   1.34269  0.0014527
   1.36228 0.00150716
   1.38186 0.00155935
   1.40144 0.00161475
   1.42102 0.00166778
   1.44061  0.0017249
   1.46019 0.00177808
   1.47977 0.00183658
   1.49935 0.00188897
   1.51894 0.00194969
   1.53852 0.00200142
    1.5581  0.0020648
   1.57768 0.00211298
   1.59727 0.00218034
   1.61685 0.00222344
   1.63643 0.00230047
   1.65601 0.00232984
    1.6756 0.00242839
   1.69518  0.0024365
   1.71314 0.00252789
   1.72902  0.0025274
   1.74403 0.00259601
   1.75821 0.00261682
    1.7716 0.00266105
   1.78426 0.00268573
   1.79621  0.0027165
   1.80751 0.00273799
   1.81818  0.0027605
   1.82826 0.00277745
   1.83779 0.00279301
   1.84679 0.00280445
   1.85529 0.00281406
   1.86332 0.00282046
   1.87091 0.00282455
   1.87808 0.00282564
   1.88485 0.00282432
   1.89125 0.00282018
   1.89729 0.00281359
     1.903 0.00280416
    1.9084   0.002792
    1.9135 0.00277675
   1.91831 0.00275831
   1.92286 0.00273635
   1.92716 0.00271059
   1.93122 0.00268067
   1.93506 0.00264625
   1.93868 0.00260697
   1.94211 0.00256254
   1.94534 0.00251268
    1.9484  0.0024572
   1.95129 0.00239596
   1.95401 0.00232899
   1.95659 0.00225644
   1.95903 0.00217856
   1.96133 0.00209574
    1.9635 0.00200844
   1.96555 0.00191727
   1.96749 0.00182285
   1.96933 0.00172596
   1.97106 0.00162729
   1.97269 0.00152773
   1.97424 0.00142796
    1.9757 0.00132888
   1.97708  0.0012311
   1.97838 0.00113546
   1.97961 0.00104243
   1.98077 0.000952776
   1.98187 0.000866747
   1.98291 0.000785001
   1.98389 0.000707573
   1.98482 0.000635006
   1.98569 0.000567103
   1.98652 0.000504319
    1.9873 0.00044623
   1.98804 0.000393236
   1.98874 0.000344705
    1.9894 0.000301028
   1.99002 0.000261394
   1.99061 0.000226219
   1.99116 0.000194555
   1.99169 0.000166862
   1.99218 0.000142107
   1.99265 0.000120786
    1.9931 0.000102156
   1.99355 8.48439e-05
   1.99399 6.9246e-05
   1.99444 5.53197e-05
   1.99488 4.31251e-05
   1.99533 3.26467e-05
   1.99577 2.38429e-05
   1.99622 1.66828e-05
   1.99666 1.10327e-05
   1.99711 6.81217e-06
   1.99755 3.80807e-06
     1.998 1.87194e-06
   1.99844 7.40476e-07
   1.99889 2.09921e-07
   1.99933 2.57959e-08
   1.99978 6.64221e-11
         2          0
