         0          0
 0.0002225 9.65201e-06
 0.0006675 7.60381e-05
 0.0011125 0.00019049
 0.0015575 0.000338461
 0.0020025 0.00050852
 0.0024475 0.000691469
 0.0028925 0.000880343
 0.0033375 0.00106977
 0.0037825 0.00125604
 0.0042275 0.00143657
 0.0046725 0.00160987
 0.0051175 0.00177506
 0.0055625  0.0019319
 0.0060075 0.00208038
 0.0064525  0.0022208
 0.0068975 0.00235349
 0.0073476 0.00248051
0.00781612 0.00260549
0.00831203 0.00273023
0.00883694 0.00285415
0.00939255 0.00297701
0.00998065  0.0030982
 0.0106031 0.00321736
  0.011262  0.0033339
 0.0119594  0.0034474
 0.0126977 0.00355733
  0.013479 0.00366326
 0.0143061 0.00376476
 0.0151815 0.00386145
 0.0161082   0.003953
  0.017089  0.0040391
 0.0181271 0.00411956
  0.019226 0.00419414
 0.0203891 0.00426275
 0.0216203 0.00432524
 0.0229234 0.00438161
 0.0243028 0.00443181
 0.0257628 0.00447595
 0.0273082 0.00451411
  0.028944 0.00454647
 0.0306754 0.00457318
 0.0325081 0.00459444
 0.0344479 0.00461049
 0.0365012 0.00462159
 0.0386746 0.00462802
  0.040975 0.00463008
   0.04341 0.00462817
 0.0459873 0.00462253
 0.0487154 0.00461345
  0.051603  0.0046011
 0.0546595 0.00458579
 0.0578947 0.00456758
 0.0613191 0.00454676
 0.0649437 0.00452342
 0.0687803 0.00449786
 0.0728413 0.00446995
 0.0771397 0.00444013
 0.0816895 0.00440818
 0.0865054 0.00437488
 0.0916029 0.00434034
 0.0969985 0.00430536
   0.10271 0.00426966
  0.108755 0.00423335
  0.115153 0.00419554
  0.121926 0.00415667
  0.129095 0.00411657
  0.136683 0.00407595
  0.144715 0.00403549
  0.153216 0.00399374
  0.162214 0.00395099
  0.171739 0.00390387
  0.181821 0.00385717
  0.192492 0.00380405
  0.203788 0.00375513
  0.215744 0.00369503
  0.228399 0.00364735
  0.241794 0.00357583
  0.255972  0.0035321
   0.27098 0.00343867
  0.286865 0.00344958
  0.304824 0.00326152
  0.324407 0.00324682
  0.343989 0.00312659
  0.363571 0.00305335
  0.383154 0.00295451
  0.402736 0.00287352
  0.422319 0.00278261
  0.441901 0.00270073
  0.461484 0.00261447
  0.481066 0.00252816
  0.500648 0.00244047
  0.520231 0.00235349
  0.539813  0.0022643
  0.559396 0.00217212
  0.578978 0.00208421
   0.59856  0.0019996
  0.618143 0.00191872
  0.637725 0.00183643
  0.657308 0.00175687
   0.67689 0.00167817
  0.696473 0.00160505
  0.716055 0.00153123
  0.735637 0.00146067
   0.75522 0.00139081
  0.774802  0.0013259
  0.794385 0.00126416
  0.813967 0.00120534
  0.833549 0.00114872
  0.853132 0.00109643
  0.872714 0.00105006
  0.892297 0.00101046
  0.911879 0.000975576
  0.931462 0.000946395
  0.951044 0.000923822
  0.970626 0.000908282
  0.990209 0.000898335
   1.00979 0.000895169
   1.02937 0.000899142
   1.04896 0.000909849
   1.06854 0.000927695
   1.08812 0.000951363
    1.1077 0.000981158
   1.12729 0.00101618
   1.14687  0.0010565
   1.16645 0.00110082
   1.18603 0.00115111
   1.20562 0.00120813
    1.2252 0.00127062
   1.24478 0.00133736
   1.26436  0.0014111
   1.28395 0.00148751
   1.30353 0.00156534
   1.32311 0.00164182
   1.34269 0.00172132
   1.36228 0.00180123
   1.38186 0.00188346
   1.40144 0.00196722
   1.42102 0.00205503
   1.44061 0.00214208
   1.46019 0.00223338
   1.47977 0.00232503
   1.49935 0.00241691
   1.51894  0.0025085
   1.53852 0.00259912
    1.5581 0.00269509
   1.57768 0.00278601
   1.59727 0.00288063
   1.61685 0.00296471
   1.63643 0.00306696
   1.65601 0.00314914
    1.6756 0.00327579
   1.69518 0.00328861
   1.71314 0.00347537
   1.72902 0.00346354
   1.74403 0.00355274
   1.75821 0.00359257
    1.7716 0.00365951
   1.78426 0.00370308
   1.79621 0.00375822
   1.80751  0.0038003
   1.81818 0.00384764
   1.82826 0.00388881
   1.83779 0.00393175
   1.84679 0.00397151
   1.85529 0.00401127
   1.86332 0.00404984
   1.87091 0.00408815
   1.87808 0.00412534
   1.88485 0.00416228
   1.89125 0.00419836
   1.89729  0.0042335
     1.903  0.0042682
    1.9084  0.0043022
    1.9135 0.00433521
   1.91831 0.00436642
   1.92286 0.00439616
   1.92716 0.00442408
   1.93122 0.00445023
   1.93506 0.00447424
   1.93868 0.00449611
   1.94211 0.00451554
   1.94534 0.00453239
    1.9484 0.00454635
   1.95129 0.00455751
   1.95401 0.00456566
   1.95659  0.0045706
   1.95903 0.00457191
   1.96133 0.00456928
    1.9635 0.00456246
   1.96555 0.00455121
   1.96749 0.00453518
   1.96933 0.00451405
   1.97106 0.00448752
   1.97269 0.00445536
   1.97424 0.00441737
    1.9757  0.0043734
   1.97708 0.00432339
   1.97838 0.00426725
   1.97961 0.00420506
   1.98077 0.00413681
   1.98187 0.00406266
   1.98291 0.00398271
   1.98389 0.00389722
   1.98482 0.00380639
   1.98569 0.00371052
   1.98652 0.00360995
    1.9873 0.00350505
   1.98804 0.00339625
   1.98874 0.00328397
    1.9894 0.00316874
   1.99002 0.00305098
   1.99061 0.00293125
   1.99116 0.00280993
   1.99169  0.0026876
   1.99218 0.00256449
   1.99265 0.00244117
    1.9931 0.00231587
   1.99355 0.00218502
   1.99399 0.00204656
   1.99444  0.0019002
   1.99488 0.00174565
   1.99533 0.00158292
   1.99577 0.00141226
   1.99622 0.00123455
   1.99666 0.00105124
   1.99711 0.000864916
   1.99755 0.000679206
     1.998 0.000499392
   1.99844 0.000332312
   1.99889 0.000186987
   1.99933 7.46206e-05
   1.99978 9.46877e-06
         2          0
