         0    195.602
 0.0002225     177.02
 0.0006675    145.425
 0.0011125    119.782
 0.0015575    98.8693
 0.0020025    82.0806
 0.0024475    69.0613
 0.0028925    59.4933
 0.0033375    52.9961
 0.0037825    49.1085
 0.0042275    47.3209
 0.0046725    47.1242
 0.0051175    48.0542
 0.0055625    49.7187
 0.0060075    51.8079
 0.0064525    54.0914
 0.0068975     56.381
 0.0073476    58.5361
0.00781612    60.5312
0.00831203     62.332
0.00883694    63.8427
0.00939255    65.0506
0.00998065    65.9448
 0.0106031    66.5367
  0.011262    66.8325
 0.0119594    66.8541
 0.0126977    66.6167
  0.013479    66.1464
 0.0143061    65.4633
 0.0151815    64.5937
 0.0161082    63.5576
  0.017089    62.3772
 0.0181271     61.069
  0.019226    59.6508
 0.0203891    58.1368
 0.0216203    56.5423
 0.0229234    54.8798
 0.0243028    53.1609
 0.0257628    51.3938
 0.0273082    49.5865
  0.028944    47.7473
 0.0306754    45.8864
 0.0325081     44.015
 0.0344479    42.1439
 0.0365012    40.2816
 0.0386746    38.4381
  0.040975    36.6222
   0.04341      34.84
 0.0459873    33.0989
 0.0487154    31.4069
  0.051603    29.7685
 0.0546595     28.187
 0.0578947    26.6662
 0.0613191    25.2124
 0.0649437    23.8254
 0.0687803    22.5068
 0.0728413    21.2558
 0.0771397    20.0695
 0.0816895    18.9514
 0.0865054     17.897
 0.0916029       16.9
 0.0969985    15.9575
   0.10271     15.069
  0.108755    14.2311
  0.115153    13.4426
  0.121926    12.7031
  0.129095     12.008
  0.136683    11.3502
  0.144715    10.7245
  0.153216     10.133
  0.162214    9.57196
  0.171739     9.0392
  0.181821    8.53263
  0.192492    8.04922
  0.203788    7.59025
  0.215744    7.14649
  0.228399    6.71353
  0.241794     6.3107
  0.255972    5.92269
   0.27098    5.58115
  0.286865     5.0886
  0.304824    4.66065
  0.324407    4.25954
  0.343989    4.03352
  0.363571    3.78868
  0.383154    3.57119
  0.402736    3.36172
  0.422319    3.17518
  0.441901    3.00007
  0.461484    2.83747
  0.481066    2.68226
  0.500648    2.53699
  0.520231    2.39475
  0.539813    2.26698
  0.559396    2.13878
  0.578978    2.01768
   0.59856    1.90284
  0.618143    1.79448
  0.637725    1.69358
  0.657308    1.59506
   0.67689    1.50141
  0.696473     1.4122
  0.716055    1.32944
  0.735637    1.25155
   0.75522    1.17582
  0.774802    1.10415
  0.794385    1.03794
  0.813967   0.976553
  0.833549   0.921269
  0.853132   0.872118
  0.872714   0.826988
  0.892297   0.788271
  0.911879   0.753969
  0.931462   0.724857
  0.951044   0.702652
  0.970626   0.688697
  0.990209   0.681335
   1.00979   0.679078
   1.02937   0.682044
   1.04896   0.692193
   1.06854   0.707855
   1.08812    0.73097
    1.1077   0.760291
   1.12729   0.794923
   1.14687   0.837528
   1.16645   0.886964
   1.18603   0.942689
   1.20562    1.00372
    1.2252     1.0705
   1.24478    1.14355
   1.26436    1.22083
   1.28395    1.30401
   1.30353    1.39425
   1.32311    1.48903
   1.34269    1.58948
   1.36228      1.694
   1.38186    1.80303
   1.40144     1.9167
   1.42102    2.03815
   1.44061     2.1646
   1.46019    2.29797
   1.47977    2.43541
   1.49935    2.58039
   1.51894    2.73329
   1.53852    2.89969
    1.5581    3.07168
   1.57768    3.25947
   1.59727    3.45746
   1.61685    3.67266
   1.63643    3.89259
   1.65601    4.13187
    1.6756    4.35665
   1.69518    4.75343
   1.71314    5.17725
   1.72902    5.66404
   1.74403    6.00344
   1.75821    6.38764
    1.7716     6.7848
   1.78426    7.20417
   1.79621     7.6379
   1.80751    8.09137
   1.81818     8.5661
   1.82826     9.0663
   1.83779    9.58781
   1.84679    10.1381
   1.85529    10.7199
   1.86332    11.3326
   1.87091    11.9785
   1.87808    12.6635
   1.88485    13.3872
   1.89125    14.1568
   1.89729    14.9745
     1.903    15.8414
    1.9084    16.7586
    1.9135    17.7355
   1.91831    18.7776
   1.92286    19.8825
   1.92716    21.0512
   1.93122    22.2862
   1.93506    23.5863
   1.93868    24.9523
   1.94211    26.3813
   1.94534    27.8741
    1.9484    29.4308
   1.95129    31.0446
   1.95401    32.7088
   1.95659     34.419
   1.95903    36.1717
   1.96133    37.9605
    1.9635    39.7733
   1.96555    41.5988
   1.96749    43.4283
   1.96933    45.2554
   1.97106    47.0711
   1.97269    48.8649
   1.97424    50.6262
    1.9757    52.3461
   1.97708    54.0158
   1.97838    55.6264
   1.97961    57.1671
   1.98077    58.6269
   1.98187    59.9924
   1.98291    61.2497
   1.98389    62.3806
   1.98482    63.3682
   1.98569    64.1906
   1.98652    64.8289
    1.9873    65.2582
   1.98804    65.4591
   1.98874     65.406
    1.9894    65.0836
   1.99002     64.471
   1.99061    63.5634
   1.99116    62.3513
   1.99169    60.8472
   1.99218    59.0652
   1.99265    57.1001
    1.9931    54.9862
   1.99355    52.7498
   1.99399    50.5294
   1.99444    48.5106
   1.99488    46.9198
   1.99533    46.0601
   1.99577    46.3142
   1.99622    48.1336
   1.99666    52.0121
   1.99711    58.4433
   1.99755    67.8736
     1.998    80.6725
   1.99844    97.1501
   1.99889    117.655
   1.99933    142.781
   1.99978    173.718
         2    191.902
