         0   -50.4027
 0.0002225   -50.3891
 0.0006675   -50.3464
 0.0011125   -50.2568
 0.0015575   -50.0883
 0.0020025   -49.8099
 0.0024475   -49.3948
 0.0028925   -48.8224
 0.0033375   -48.0808
 0.0037825   -47.1669
 0.0042275    -46.087
 0.0046725   -44.8553
 0.0051175   -43.4919
 0.0055625   -42.0212
 0.0060075   -40.4693
 0.0064525   -38.8627
 0.0068975   -37.2257
 0.0073476   -35.5636
0.00781612    -33.851
0.00831203   -32.0769
0.00883694   -30.2591
0.00939255   -28.4185
0.00998065    -26.576
 0.0106031   -24.7522
  0.011262   -22.9663
 0.0119594    -21.235
 0.0126977   -19.5727
  0.013479   -17.9907
 0.0143061    -16.497
 0.0151815   -15.0969
 0.0161082   -13.7929
  0.017089   -12.5853
 0.0181271   -11.4723
  0.019226   -10.4507
 0.0203891   -9.51637
 0.0216203   -8.66419
 0.0229234   -7.88876
 0.0243028   -7.18452
 0.0257628   -6.54597
 0.0273082   -5.96787
  0.028944   -5.44522
 0.0306754   -4.97329
 0.0325081   -4.54763
 0.0344479   -4.16415
 0.0365012   -3.81908
 0.0386746   -3.50892
  0.040975   -3.23045
   0.04341   -2.98061
 0.0459873   -2.75649
 0.0487154   -2.55548
  0.051603   -2.37522
 0.0546595   -2.21351
 0.0578947   -2.06833
 0.0613191   -1.93799
 0.0649437   -1.82091
 0.0687803   -1.71527
 0.0728413   -1.61928
 0.0771397   -1.53161
 0.0816895    -1.4513
 0.0865054   -1.37742
 0.0916029   -1.30919
 0.0969985   -1.24615
   0.10271   -1.18788
  0.108755   -1.13356
  0.115153    -1.0824
  0.121926   -1.03395
  0.129095  -0.988278
  0.136683  -0.945525
  0.144715  -0.905975
  0.153216  -0.868088
  0.162214  -0.831998
  0.171739  -0.796921
  0.181821  -0.765042
  0.192492  -0.733621
  0.203788  -0.707372
  0.215744  -0.678231
  0.228399  -0.657714
  0.241794  -0.627484
  0.255972  -0.613148
   0.27098  -0.585532
  0.286865  -0.556769
  0.304824  -0.564846
  0.324407  -0.526447
  0.343989  -0.497593
  0.363571  -0.476942
  0.383154  -0.452088
  0.402736  -0.435056
  0.422319  -0.415302
  0.441901  -0.400097
  0.461484  -0.384832
  0.481066  -0.372294
  0.500648  -0.360509
  0.520231  -0.349789
  0.539813  -0.337245
  0.559396  -0.324932
  0.578978  -0.312619
   0.59856  -0.301562
  0.618143  -0.290979
  0.637725  -0.280514
  0.657308  -0.268556
   0.67689  -0.256527
  0.696473  -0.245496
  0.716055  -0.234409
  0.735637  -0.222399
   0.75522  -0.209315
  0.774802  -0.195639
  0.794385   -0.18202
  0.813967  -0.168031
  0.833549  -0.153528
  0.853132   -0.13815
  0.872714  -0.122445
  0.892297  -0.106781
  0.911879 -0.0899412
  0.931462 -0.0715948
  0.951044  -0.052923
  0.970626 -0.0342575
  0.990209 -0.0154079
   1.00979 0.00381123
   1.02937  0.0228525
   1.04896  0.0419115
   1.06854  0.0612383
   1.08812  0.0799746
    1.1077  0.0978282
   1.12729   0.115685
   1.14687    0.13355
   1.16645   0.151036
   1.18603   0.167538
   1.20562   0.183073
    1.2252   0.197825
   1.24478   0.211573
   1.26436   0.225493
   1.28395    0.23939
   1.30353   0.252086
   1.32311   0.263986
   1.34269   0.274777
   1.36228   0.285734
   1.38186   0.297322
   1.40144   0.309832
   1.42102    0.32281
   1.44061   0.336938
   1.46019    0.34956
   1.47977   0.361955
   1.49935    0.37524
   1.51894   0.390052
   1.53852   0.404147
    1.5581   0.421558
   1.57768   0.436149
   1.59727   0.453381
   1.61685   0.469111
   1.63643   0.493357
   1.65601   0.512289
    1.6756   0.540703
   1.69518   0.579851
   1.71314   0.570307
   1.72902   0.599495
   1.74403   0.626591
   1.75821   0.637895
    1.7716     0.6662
   1.78426    0.68618
   1.79621   0.714361
   1.80751   0.739185
   1.81818   0.769489
   1.82826   0.799975
   1.83779   0.833658
   1.84679   0.868504
   1.85529   0.905406
   1.86332   0.944012
   1.87091   0.985323
   1.87808    1.02943
   1.88485    1.07644
   1.89125    1.12636
   1.89729    1.17969
     1.903    1.23717
    1.9084    1.29945
    1.9135    1.36685
   1.91831     1.4398
   1.92286     1.5195
   1.92716     1.6071
   1.93122    1.70334
   1.93506    1.80921
   1.93868    1.92624
   1.94211    2.05623
   1.94534    2.20081
    1.9484    2.36163
   1.95129    2.54082
   1.95401    2.74088
   1.95659    2.96435
   1.95903    3.21378
   1.96133    3.49193
    1.9635    3.80173
   1.96555    4.14636
   1.96749    4.52934
   1.96933    4.95443
   1.97106    5.42566
   1.97269    5.94731
   1.97424    6.52405
    1.9757    7.16088
   1.97708    7.86307
   1.97838    8.63609
   1.97961    9.48539
   1.98077    10.4163
   1.98187    11.4337
   1.98291    12.5418
   1.98389    13.7438
   1.98482    15.0413
   1.98569     16.434
   1.98652    17.9193
    1.9873    19.4918
   1.98804    21.1433
   1.98874    22.8623
    1.9894    24.6345
   1.99002    26.4429
   1.99061    28.2684
   1.99116    30.0905
   1.99169    31.8884
   1.99218    33.6416
   1.99265    35.3326
    1.9931    36.9724
   1.99355    38.5858
   1.99399     40.168
   1.99444    41.6949
   1.99488    43.1408
   1.99533    44.4801
   1.99577    45.6892
   1.99622    46.7486
   1.99666    47.6446
   1.99711    48.3716
   1.99755    48.9325
     1.998    49.3393
   1.99844    49.6122
   1.99889    49.7776
   1.99933    49.8657
   1.99978     49.908
         2    49.9216
