         0 -0.000510077
 0.0002225 -0.000492062
 0.0006675 -0.00135325
 0.0011125 -0.0019113
 0.0015575 -0.00203535
 0.0020025 -0.00162152
 0.0024475 -0.000585127
 0.0028925 0.00113675
 0.0033375 0.00357343
 0.0037825 0.00670599
 0.0042275  0.0104583
 0.0046725  0.0146997
 0.0051175  0.0192603
 0.0055625  0.0239521
 0.0060075   0.028591
 0.0064525  0.0330144
 0.0068975   0.037073
 0.0073476  0.0406726
0.00781612  0.0438035
0.00831203  0.0463907
0.00883694   0.048281
0.00939255  0.0493667
0.00998065  0.0495572
 0.0106031  0.0487954
  0.011262  0.0470572
 0.0119594  0.0443645
 0.0126977  0.0407806
  0.013479  0.0364187
 0.0143061   0.031442
 0.0151815  0.0260769
 0.0161082  0.0205998
  0.017089  0.0152978
 0.0181271  0.0103997
  0.019226 0.00604722
 0.0203891 0.00233555
 0.0216203 -0.000629662
 0.0229234 -0.00277779
 0.0243028 -0.00421453
 0.0257628 -0.00525066
 0.0273082 -0.00617127
  0.028944 -0.00701894
 0.0306754 -0.00764431
 0.0325081 -0.00796912
 0.0344479 -0.0081722
 0.0365012 -0.00855146
 0.0386746 -0.00930074
  0.040975 -0.0102076
   0.04341 -0.0106655
 0.0459873 -0.0102948
 0.0487154 -0.00981456
  0.051603 -0.0101135
 0.0546595 -0.0103984
 0.0578947 -0.00959602
 0.0613191 -0.00807968
 0.0649437 -0.00667944
 0.0687803 -0.00543879
 0.0728413 -0.00449853
 0.0771397 -0.00465772
 0.0816895 -0.00600747
 0.0865054 -0.00767872
 0.0916029 -0.00942035
 0.0969985 -0.0104762
   0.10271 -0.0102372
  0.108755 -0.00931324
  0.115153 -0.00766627
  0.121926 -0.00585883
  0.129095 -0.00482967
  0.136683 -0.00363314
  0.144715 -0.000970225
  0.153216 0.00108009
  0.162214 0.000611098
  0.171739 -0.00153169
  0.181821 -0.00330886
  0.192492 -0.0034778
  0.203788 -0.00295048
  0.215744 -0.000821822
  0.228399  0.0024396
  0.241794 0.00569766
  0.255972 0.00613867
   0.27098 0.00611882
  0.286865 0.00665788
  0.304824 0.00299598
  0.324407 -0.00107903
  0.343989 -0.0035375
  0.363571 -0.00492498
  0.383154 -0.00497877
  0.402736 -0.0039346
  0.422319 -0.00424087
  0.441901 -0.00317359
  0.461484 -0.00244688
  0.481066 -0.00194154
  0.500648 -0.00166034
  0.520231 -0.00280691
  0.539813 -0.00450076
  0.559396 -0.00433517
  0.578978 -0.0024472
   0.59856 0.000243098
  0.618143  0.0022814
  0.637725 0.00264338
  0.657308 0.00175715
   0.67689 0.000375794
  0.696473 -0.00134431
  0.716055 -0.00148735
  0.735637 -0.00086635
   0.75522 -0.000444599
  0.774802 0.000111237
  0.794385 0.000798026
  0.813967 0.00169942
  0.833549 0.00268346
  0.853132 0.00364888
  0.872714 0.00457369
  0.892297 0.00464554
  0.911879 0.00451171
  0.931462 0.00452778
  0.951044 0.00430588
  0.970626 0.00409056
  0.990209 0.00385845
   1.00979 0.00332492
   1.02937 0.00300807
   1.04896 0.00294014
   1.06854 0.00254519
   1.08812 0.00180212
    1.1077 0.000943029
   1.12729 0.000101102
   1.14687 -0.000651256
   1.16645 -0.00101495
   1.18603 -0.00123085
   1.20562 -0.00207078
    1.2252 -0.00286205
   1.24478 -0.00356369
   1.26436 -0.00444402
   1.28395 -0.00528617
   1.30353 -0.00546872
   1.32311 -0.00627293
   1.34269 -0.00670652
   1.36228 -0.00746263
   1.38186 -0.00796648
   1.40144 -0.00920343
   1.42102 -0.0105164
   1.44061 -0.0108066
   1.46019 -0.0103702
   1.47977 -0.0081724
   1.49935 -0.00604924
   1.51894 -0.00456065
   1.53852 -0.00250682
    1.5581 -0.00107027
   1.57768 -0.000279229
   1.59727 7.02438e-05
   1.61685 0.000159737
   1.63643 -0.00252226
   1.65601 -0.00655973
    1.6756 -0.0106737
   1.69518 -0.0122833
   1.71314 -0.0106847
   1.72902 -0.00846956
   1.74403 -0.00739684
   1.75821 -0.0075136
    1.7716 -0.00728014
   1.78426 -0.00581237
   1.79621 -0.00585464
   1.80751 -0.00601926
   1.81818 -0.00573238
   1.82826 -0.00637013
   1.83779 -0.00731997
   1.84679 -0.00784128
   1.85529 -0.00839743
   1.86332 -0.0108132
   1.87091 -0.0125278
   1.87808 -0.0121705
   1.88485 -0.0113749
   1.89125 -0.0103898
   1.89729 -0.0090092
     1.903 -0.00763901
    1.9084 -0.00645329
    1.9135 -0.00532456
   1.91831 -0.00455311
   1.92286 -0.00425853
   1.92716 -0.00412723
   1.93122 -0.00367538
   1.93506 -0.00275636
   1.93868 -0.0020349
   1.94211 -0.00115371
   1.94534 0.000185735
    1.9484 0.00152163
   1.95129 0.00229229
   1.95401 0.00305556
   1.95659 0.00452805
   1.95903 0.00662149
   1.96133 0.00934246
    1.9635  0.0132608
   1.96555    0.01851
   1.96749  0.0244204
   1.96933  0.0303943
   1.97106  0.0364776
   1.97269  0.0431579
   1.97424  0.0508379
    1.9757  0.0595638
   1.97708  0.0691011
   1.97838  0.0790804
   1.97961  0.0890466
   1.98077  0.0985305
   1.98187   0.107101
   1.98291   0.114414
   1.98389   0.120259
   1.98482   0.124566
   1.98569   0.127341
   1.98652   0.128612
    1.9873   0.128393
   1.98804   0.126703
   1.98874   0.123575
    1.9894   0.119089
   1.99002   0.113369
   1.99061   0.106598
   1.99116  0.0989813
   1.99169  0.0907598
   1.99218  0.0821589
   1.99265  0.0735098
    1.9931   0.064863
   1.99355  0.0560571
   1.99399  0.0472084
   1.99444  0.0385232
   1.99488  0.0301485
   1.99533  0.0222356
   1.99577  0.0149429
   1.99622 0.00843424
   1.99666 0.00287522
   1.99711 -0.00157751
   1.99755 -0.00479141
     1.998 -0.00667727
   1.99844 -0.00720891
   1.99889 -0.00644028
   1.99933 -0.00451619
   1.99978 -0.00167213
         2 -0.00175008
