         0  0.0221801
 0.0002225  0.0221793
 0.0006675  0.0221716
 0.0011125  0.0221447
 0.0015575  0.0220841
 0.0020025  0.0219761
 0.0024475  0.0218084
 0.0028925  0.0215712
 0.0033375  0.0212579
 0.0037825  0.0208662
 0.0042275   0.020398
 0.0046725  0.0198597
 0.0051175  0.0192608
 0.0055625   0.018613
 0.0060075  0.0179292
 0.0064525  0.0172219
 0.0068975  0.0165026
 0.0073476   0.015774
0.00781612  0.0150259
0.00831203  0.0142539
0.00883694  0.0134656
0.00939255  0.0126698
0.00998065   0.011875
 0.0106031  0.0110884
  0.011262  0.0103156
 0.0119594 0.00956013
 0.0126977 0.00882322
  0.013479 0.00810393
 0.0143061  0.0073991
 0.0151815 0.00670397
 0.0161082 0.00601404
  0.017089 0.00532886
 0.0181271 0.00465717
  0.019226 0.00402087
 0.0203891  0.0034522
 0.0216203 0.00298075
 0.0229234 0.00261859
 0.0243028 0.00235999
 0.0257628 0.00219315
 0.0273082 0.00210075
  0.028944 0.00204897
 0.0306754 0.00199408
 0.0325081 0.00190565
 0.0344479 0.00176732
 0.0365012 0.00155597
 0.0386746  0.0012539
  0.040975 0.000884785
   0.04341 0.00051128
 0.0459873 0.000226212
 0.0487154 9.9289e-05
  0.051603 4.36912e-05
 0.0546595 -9.34681e-05
 0.0578947 -0.000334655
 0.0613191 -0.000627459
 0.0649437 -0.000998489
 0.0687803 -0.0014781
 0.0728413 -0.00193479
 0.0771397 -0.00223913
 0.0816895 -0.00240757
 0.0865054 -0.00250462
 0.0916029 -0.00257844
 0.0969985 -0.00252045
   0.10271 -0.00234348
  0.108755 -0.00227124
  0.115153 -0.00218692
  0.121926 -0.00177774
  0.129095 -0.00121002
  0.136683 -0.000849053
  0.144715 -0.000995813
  0.153216 -0.00138535
  0.162214 -0.00134935
  0.171739 -0.00138066
  0.181821 -0.00178058
  0.192492 -0.00154169
  0.203788 -0.000902692
  0.215744 8.98138e-05
  0.228399 0.00167336
  0.241794 0.00254797
  0.255972 0.00318173
   0.27098 0.00275989
  0.286865 0.00218276
  0.304824 0.00130097
  0.324407 -0.00083669
  0.343989 -0.00205323
  0.363571 -0.00222685
  0.383154 -0.00137821
  0.402736 -0.00129371
  0.422319 -0.00201045
  0.441901 -0.00220613
  0.461484 -0.00239372
  0.481066 -0.0019335
  0.500648 -0.00120287
  0.520231 -0.00192929
  0.539813 -0.00339594
  0.559396 -0.00333036
  0.578978 -0.00160761
   0.59856 0.000471965
  0.618143 0.00234881
  0.637725 0.00279853
  0.657308  0.0015309
   0.67689 2.51976e-05
  0.696473 -0.000414159
  0.716055 -0.000518808
  0.735637 -0.000953539
   0.75522 -0.000950728
  0.774802 -0.000281224
  0.794385 0.000674555
  0.813967 0.00136736
  0.833549 0.00183157
  0.853132 0.00219809
  0.872714 0.00292277
  0.892297 0.00423286
  0.911879 0.00519338
  0.931462 0.00478184
  0.951044 0.00401976
  0.970626 0.00386859
  0.990209 0.00366507
   1.00979 0.00342151
   1.02937  0.0034862
   1.04896 0.00379969
   1.06854 0.00407484
   1.08812 0.00369214
    1.1077 0.00244618
   1.12729 0.000768993
   1.14687 -0.00040994
   1.16645 -0.00133567
   1.18603 -0.00241537
   1.20562 -0.00283737
    1.2252 -0.00241593
   1.24478 -0.0022725
   1.26436 -0.00273459
   1.28395 -0.00291808
   1.30353 -0.00303881
   1.32311 -0.00310792
   1.34269 -0.00316826
   1.36228 -0.00423136
   1.38186 -0.00565481
   1.40144 -0.00631708
   1.42102 -0.00688217
   1.44061 -0.00668426
   1.46019 -0.00548038
   1.47977 -0.00378489
   1.49935 -0.00137232
   1.51894 0.000175544
   1.53852 0.00137415
    1.5581 0.00238361
   1.57768 0.00203969
   1.59727 0.00131245
   1.61685 0.00073345
   1.63643 -0.000815681
   1.65601 -0.0033992
    1.6756 -0.00476203
   1.69518 -0.00400244
   1.71314 -0.00308563
   1.72902 -0.00331459
   1.74403 -0.00378202
   1.75821 -0.00332008
    1.7716 -0.00264848
   1.78426 -0.00281278
   1.79621 -0.00320713
   1.80751 -0.00317512
   1.81818 -0.00220844
   1.82826 -0.00100803
   1.83779 -0.000608964
   1.84679 -0.00067918
   1.85529 -0.000820145
   1.86332 -0.0012813
   1.87091 -0.00180923
   1.87808 -0.00157374
   1.88485 -0.000506374
   1.89125 0.000632638
   1.89729 0.00140577
     1.903 0.00173032
    1.9084 0.00166808
    1.9135 0.00128074
   1.91831 0.00064778
   1.92286 3.57846e-05
   1.92716 -0.000308431
   1.93122 -0.000408405
   1.93506 -0.000380036
   1.93868 -0.00029058
   1.94211 -0.000151654
   1.94534 0.000114094
    1.9484 0.000524177
   1.95129 0.000990264
   1.95401 0.00143008
   1.95659 0.00183809
   1.95903 0.00228018
   1.96133 0.00281383
    1.9635 0.00347802
   1.96555 0.00429177
   1.96749 0.00523388
   1.96933 0.00626364
   1.97106  0.0073623
   1.97269 0.00852613
   1.97424 0.00974531
    1.9757  0.0110164
   1.97708  0.0123497
   1.97838   0.013751
   1.97961   0.015211
   1.98077  0.0167125
   1.98187  0.0182417
   1.98291  0.0197945
   1.98389  0.0213767
   1.98482  0.0229973
   1.98569  0.0246621
   1.98652  0.0263703
    1.9873  0.0281142
   1.98804  0.0298819
   1.98874  0.0316595
    1.9894  0.0334336
   1.99002  0.0351926
   1.99061  0.0369266
   1.99116   0.038627
   1.99169  0.0402859
   1.99218  0.0418952
   1.99265  0.0434485
    1.9931  0.0449637
   1.99355  0.0464703
   1.99399  0.0479691
   1.99444  0.0494418
   1.99488  0.0508668
   1.99533  0.0522196
   1.99577  0.0534747
   1.99622  0.0546067
   1.99666  0.0555933
   1.99711  0.0564182
   1.99755  0.0570728
     1.998  0.0575589
   1.99844  0.0578886
   1.99889  0.0580845
   1.99933  0.0581783
   1.99978  0.0582081
         2   0.058212
