         0   -1.22022
 0.0002225   -1.22412
 0.0006675   -3.66753
 0.0011125   -5.89296
 0.0015575   -7.67885
 0.0020025   -8.85595
 0.0024475   -9.31846
 0.0028925   -9.02819
 0.0033375   -8.01121
 0.0037825   -6.34698
 0.0042275   -4.15218
 0.0046725   -1.56283
 0.0051175    1.28231
 0.0055625    4.25466
 0.0060075    7.24421
 0.0064525    10.1634
 0.0068975    12.9396
 0.0073476    15.5417
0.00781612    17.9961
0.00831203    20.3026
0.00883694    22.4053
0.00939255    24.2827
0.00998065    25.9104
 0.0106031    27.2829
  0.011262    28.3931
 0.0119594     29.249
 0.0126977    29.8575
  0.013479    30.2359
 0.0143061    30.3994
 0.0151815    30.3697
 0.0161082    30.1654
  0.017089    29.8085
 0.0181271    29.3173
  0.019226    28.7117
 0.0203891    28.0082
 0.0216203    27.2238
 0.0229234    26.3728
 0.0243028    25.4689
 0.0257628    24.5237
 0.0273082     23.548
  0.028944    22.5517
 0.0306754    21.5443
 0.0325081    20.5342
 0.0344479    19.5289
 0.0365012     18.535
 0.0386746    17.5581
  0.040975    16.6033
   0.04341     15.675
 0.0459873    14.7772
 0.0487154    13.9127
  0.051603     13.083
 0.0546595    12.2892
 0.0578947    11.5322
 0.0613191    10.8125
 0.0649437    10.1295
 0.0687803    9.48267
 0.0728413    8.87105
 0.0771397    8.29288
 0.0816895    7.74744
 0.0865054    7.23473
 0.0916029    6.75261
 0.0969985     6.2989
   0.10271    5.87304
  0.108755    5.47365
  0.115153    5.10016
  0.121926    4.75199
  0.129095    4.42582
  0.136683    4.11986
  0.144715    3.83197
  0.153216     3.5619
  0.162214    3.30883
  0.171739    3.07163
  0.181821    2.85209
  0.192492    2.64547
  0.203788    2.45656
  0.215744     2.2751
  0.228399    2.11444
  0.241794     1.9505
  0.255972    1.81411
   0.27098      1.669
  0.286865    1.53865
  0.304824    1.43387
  0.324407    1.31243
  0.343989    1.19595
  0.363571    1.11076
  0.383154    1.02784
  0.402736   0.960734
  0.422319   0.896467
  0.441901   0.841072
  0.461484   0.790146
  0.481066   0.743873
  0.500648   0.699522
  0.520231   0.659775
  0.539813   0.622181
  0.559396   0.585309
  0.578978   0.551012
   0.59856   0.518359
  0.618143   0.486659
  0.637725   0.456168
  0.657308   0.426998
   0.67689   0.399792
  0.696473   0.373565
  0.716055   0.348028
  0.735637   0.322221
   0.75522   0.296929
  0.774802    0.27168
  0.794385   0.247224
  0.813967   0.223657
  0.833549   0.200909
  0.853132   0.177504
  0.872714   0.154182
  0.892297   0.130893
  0.911879   0.108313
  0.931462  0.0859482
  0.951044  0.0633456
  0.970626  0.0406189
  0.990209  0.0182877
   1.00979 -0.00405542
   1.02937 -0.0264162
   1.04896 -0.0490858
   1.06854 -0.0714517
   1.08812 -0.0940091
    1.1077  -0.116746
   1.12729   -0.14019
   1.14687  -0.164294
   1.16645  -0.189221
   1.18603  -0.214697
   1.20562  -0.240789
    1.2252  -0.266545
   1.24478  -0.292831
   1.26436  -0.320543
   1.28395  -0.348917
   1.30353  -0.377655
   1.32311  -0.406631
   1.34269  -0.436029
   1.36228  -0.467521
   1.38186  -0.500575
   1.40144  -0.534443
   1.42102  -0.569551
   1.44061  -0.607223
   1.46019  -0.645458
   1.47977  -0.686503
   1.49935  -0.729043
   1.51894  -0.775394
   1.53852  -0.825319
    1.5581  -0.879049
   1.57768  -0.936277
   1.59727    -1.0024
   1.61685   -1.07001
   1.63643   -1.15568
   1.65601   -1.23966
    1.6756   -1.35546
   1.69518   -1.47545
   1.71314   -1.57581
   1.72902   -1.70217
   1.74403    -1.8487
   1.75821   -1.98323
    1.7716   -2.14349
   1.78426   -2.30161
   1.79621   -2.47878
   1.80751   -2.66342
   1.81818    -2.8655
   1.82826   -3.08004
   1.83779   -3.31092
   1.84679   -3.55757
   1.85529   -3.82075
   1.86332   -4.10227
   1.87091   -4.40417
   1.87808   -4.72581
   1.88485   -5.06882
   1.89125   -5.43603
   1.89729   -5.82792
     1.903   -6.24584
    1.9084   -6.69098
    1.9135    -7.1652
   1.91831   -7.67089
   1.92286   -8.20837
   1.92716   -8.77851
   1.93122   -9.38255
   1.93506   -10.0211
   1.93868   -10.6951
   1.94211   -11.4051
   1.94534   -12.1518
    1.9484   -12.9357
   1.95129   -13.7552
   1.95401   -14.6082
   1.95659   -15.4929
   1.95903    -16.407
   1.96133   -17.3475
    1.9635     -18.31
   1.96555   -19.2889
   1.96749   -20.2777
   1.96933   -21.2692
   1.97106   -22.2564
   1.97269   -23.2317
   1.97424   -24.1863
    1.9757   -25.1103
   1.97708   -25.9927
   1.97838   -26.8219
   1.97961   -27.5843
   1.98077   -28.2661
   1.98187   -28.8505
   1.98291   -29.3213
   1.98389   -29.6588
   1.98482   -29.8447
   1.98569   -29.8576
   1.98652    -29.679
    1.9873   -29.2879
   1.98804   -28.6697
   1.98874   -27.8076
    1.9894   -26.6956
   1.99002   -25.3265
   1.99061    -23.708
   1.99116   -21.8464
   1.99169   -19.7664
   1.99218     -17.49
   1.99265   -15.0724
    1.9931   -12.5139
   1.99355   -9.78915
   1.99399   -6.92908
   1.99444   -4.00535
   1.99488   -1.10386
   1.99533     1.6679
   1.99577    4.18484
   1.99622    6.31244
   1.99666    7.91935
   1.99711     8.8933
   1.99755    9.15838
     1.998    8.69047
   1.99844    7.52761
   1.99889     5.7732
   1.99933    3.59193
   1.99978    1.19893
         2    1.19518
