         0  0.0772777
 0.0002225  0.0772777
 0.0006675   0.695763
 0.0011125     1.9319
 0.0015575    3.77739
 0.0020025    6.20991
 0.0024475    9.18809
 0.0028925    12.6491
 0.0033375    16.5095
 0.0037825    20.6686
 0.0042275    25.0159
 0.0046725     29.438
 0.0051175    33.8264
 0.0055625    38.0842
 0.0060075      42.13
 0.0064525    45.9006
 0.0068975    49.3515
 0.0073476    52.4882
0.00781612    55.3617
0.00831203    57.9702
0.00883694    60.2622
0.00939255    62.1946
0.00998065    63.7349
 0.0106031    64.8632
  0.011262     65.572
 0.0119594    65.8663
 0.0126977    65.7625
  0.013479    65.2863
 0.0143061    64.4704
 0.0151815    63.3529
 0.0161082    61.9741
  0.017089    60.3752
 0.0181271    58.5964
  0.019226    56.6758
 0.0203891    54.6485
 0.0216203    52.5461
 0.0229234    50.3966
 0.0243028    48.2245
 0.0257628    46.0508
 0.0273082    43.8933
  0.028944    41.7668
 0.0306754    39.6838
 0.0325081    37.6543
 0.0344479    35.6865
 0.0365012    33.7869
 0.0386746    31.9602
  0.040975    30.2098
   0.04341     28.538
 0.0459873    26.9465
 0.0487154    25.4358
  0.051603    24.0048
 0.0546595    22.6512
 0.0578947    21.3725
 0.0613191    20.1655
 0.0649437    19.0272
 0.0687803    17.9544
 0.0728413    16.9436
 0.0771397    15.9916
 0.0816895    15.0955
 0.0865054    14.2524
 0.0916029    13.4595
 0.0969985    12.7129
   0.10271    12.0104
  0.108755      11.35
  0.115153    10.7282
  0.121926    10.1424
  0.129095    9.59027
  0.136683    9.07098
  0.144715    8.58124
  0.153216     8.1188
  0.162214    7.68218
  0.171739    7.26789
  0.181821    6.87848
  0.192492    6.50848
  0.203788    6.16402
  0.215744    5.82888
  0.228399    5.52141
  0.241794    5.21399
  0.255972    4.94501
   0.27098    4.66892
  0.286865    4.51371
  0.304824    4.03291
  0.324407    3.84278
  0.343989    3.57979
  0.363571     3.3566
  0.383154    3.13762
  0.402736    2.94986
  0.422319    2.77018
  0.441901    2.61045
  0.461484      2.459
  0.481066    2.31964
  0.500648    2.18614
  0.520231    2.06554
  0.539813    1.94855
  0.559396    1.83927
  0.578978    1.73341
   0.59856    1.63578
  0.618143    1.54233
  0.637725    1.45373
  0.657308    1.37003
   0.67689    1.29188
  0.696473    1.21731
  0.716055    1.14639
  0.735637    1.07944
   0.75522    1.01621
  0.774802   0.956054
  0.794385   0.900942
  0.813967   0.850488
  0.833549    0.80417
  0.853132   0.762194
  0.872714    0.72479
  0.892297   0.691967
  0.911879   0.663728
  0.931462   0.640199
  0.951044   0.622478
  0.970626     0.6102
  0.990209   0.603443
   1.00979   0.601493
   1.02937   0.604265
   1.04896   0.612696
   1.06854   0.627177
   1.08812   0.647266
    1.1077   0.672024
   1.12729   0.702252
   1.14687    0.73855
   1.16645   0.780077
   1.18603   0.826276
   1.20562    0.87776
    1.2252   0.933868
   1.24478   0.995379
   1.26436    1.06118
   1.28395    1.13117
   1.30353    1.20562
   1.32311    1.28428
   1.34269    1.36758
   1.36228    1.45644
   1.38186    1.55018
   1.40144    1.65002
   1.42102    1.75446
   1.44061    1.86547
   1.46019    1.98028
   1.47977    2.10274
   1.49935    2.22968
   1.51894     2.3689
   1.53852    2.51432
    1.5581    2.67204
   1.57768    2.83771
   1.59727    3.02395
   1.61685    3.21672
   1.63643    3.43903
   1.65601    3.66415
    1.6756    3.92792
   1.69518    4.11132
   1.71314    4.59138
   1.72902    4.73816
   1.74403    5.00825
   1.75821    5.27054
    1.7716    5.57189
   1.78426    5.86984
   1.79621    6.19513
   1.80751    6.53083
   1.81818    6.89162
   1.82826    7.26955
   1.83779    7.67169
   1.84679    8.09612
   1.85529    8.54682
   1.86332    9.02618
   1.87091    9.53698
   1.87808    10.0776
   1.88485    10.6514
   1.89125    11.2602
   1.89729    11.9074
     1.903    12.5963
    1.9084    13.3304
    1.9135    14.1113
   1.91831    14.9417
   1.92286    15.8247
   1.92716    16.7636
   1.93122    17.7613
   1.93506    18.8201
   1.93868    19.9428
   1.94211    21.1341
   1.94534    22.3977
    1.9484    23.7356
   1.95129    25.1498
   1.95401    26.6423
   1.95659     28.214
   1.95903    29.8645
   1.96133    31.5923
    1.9635    33.3953
   1.96555    35.2699
   1.96749    37.2111
   1.96933    39.2124
   1.97106    41.2656
   1.97269    43.3604
   1.97424    45.4842
    1.9757    47.6221
   1.97708    49.7567
   1.97838    51.8672
   1.97961    53.9296
   1.98077    55.9162
   1.98187    57.7959
   1.98291     59.534
   1.98389    61.0929
   1.98482    62.4328
   1.98569    63.5131
   1.98652    64.2941
    1.9873    64.7385
   1.98804    64.8144
   1.98874     64.497
    1.9894     63.771
   1.99002    62.6324
   1.99061    61.0891
   1.99116    59.1621
   1.99169    56.8838
   1.99218    54.2975
   1.99265    51.4546
    1.9931    48.3568
   1.99355    44.9543
   1.99399    41.2421
   1.99444    37.2646
   1.99488     33.084
   1.99533    28.7802
   1.99577     24.448
   1.99622     20.193
   1.99666    16.1252
   1.99711    12.3521
   1.99755    8.97092
     1.998    6.06246
   1.99844    3.68745
   1.99889    1.88583
   1.99933   0.679163
   1.99978  0.0754339
         2  0.0754339
