         0    487.962
 0.0002225    485.646
 0.0006675    482.934
 0.0011125    480.922
 0.0015575    477.397
 0.0020025    470.593
 0.0024475    459.311
 0.0028925    443.106
 0.0033375    422.361
 0.0037825    398.162
 0.0042275    372.032
 0.0046725    345.597
 0.0051175    320.303
 0.0055625    297.238
 0.0060075    277.056
 0.0064525    260.009
 0.0068975    245.883
 0.0073476    234.088
0.00781612    224.137
0.00831203     215.62
0.00883694    208.109
0.00939255    201.339
0.00998065    195.028
 0.0106031    188.903
  0.011262    182.731
 0.0119594    176.341
 0.0126977    169.626
  0.013479     162.55
 0.0143061    155.131
 0.0151815    147.434
 0.0161082     139.55
  0.017089    131.583
 0.0181271    123.638
  0.019226    115.814
 0.0203891    108.192
 0.0216203    100.837
 0.0229234    93.7985
 0.0243028    87.1094
 0.0257628    80.7909
 0.0273082    74.8543
  0.028944    69.3032
 0.0306754    64.1321
 0.0325081    59.3295
 0.0344479    54.8813
 0.0365012    50.7693
 0.0386746    46.9767
  0.040975     43.483
   0.04341    40.2651
 0.0459873    37.2984
 0.0487154    34.5655
  0.051603     32.051
 0.0546595    29.7359
 0.0578947    27.5976
 0.0613191    25.6243
 0.0649437    23.8032
 0.0687803    22.1186
 0.0728413    20.5596
 0.0771397    19.1149
 0.0816895    17.7785
 0.0865054    16.5417
 0.0916029    15.3958
 0.0969985    14.3365
   0.10271      13.36
  0.108755    12.4527
  0.115153    11.6138
  0.121926    10.8357
  0.129095    10.1099
  0.136683    9.44075
  0.144715    8.82612
  0.153216    8.25473
  0.162214    7.72383
  0.171739    7.22611
  0.181821    6.75317
  0.192492    6.31501
  0.203788    5.90051
  0.215744    5.51288
  0.228399     5.1403
  0.241794    4.79793
  0.255972    4.46859
   0.27098    4.19914
  0.286865    3.76125
  0.304824     3.3793
  0.324407    3.04761
  0.343989    2.89779
  0.363571    2.73028
  0.383154    2.58958
  0.402736    2.44327
  0.422319    2.31672
  0.441901    2.19659
  0.461484    2.08414
  0.481066    1.97601
  0.500648    1.87823
  0.520231    1.78389
  0.539813    1.69448
  0.559396    1.60464
  0.578978    1.51993
   0.59856    1.43843
  0.618143    1.36146
  0.637725     1.2886
  0.657308    1.22098
   0.67689    1.15881
  0.696473      1.099
  0.716055    1.04256
  0.735637   0.987246
   0.75522   0.933684
  0.774802   0.885146
  0.794385   0.839838
  0.813967   0.798395
  0.833549   0.761878
  0.853132   0.730124
  0.872714   0.704058
  0.892297   0.680168
  0.911879   0.658665
  0.931462    0.64071
  0.951044    0.62725
  0.970626   0.618791
  0.990209   0.614077
   1.00979   0.612831
   1.02937   0.615871
   1.04896   0.623527
   1.06854   0.633967
   1.08812   0.648275
    1.1077   0.666674
   1.12729   0.689402
   1.14687   0.715858
   1.16645   0.746249
   1.18603   0.781635
   1.20562   0.821361
    1.2252   0.867467
   1.24478   0.916861
   1.26436   0.969833
   1.28395    1.02607
   1.30353    1.08659
   1.32311    1.14933
   1.34269     1.2167
   1.36228    1.28634
   1.38186     1.3616
   1.40144     1.4414
   1.42102    1.52714
   1.44061    1.61622
   1.46019     1.7081
   1.47977     1.8018
   1.49935     1.9033
   1.51894    2.00842
   1.53852    2.12069
    1.5581    2.24002
   1.57768    2.36787
   1.59727    2.49447
   1.61685    2.63908
   1.63643    2.78348
   1.65601    2.94936
    1.6756    3.09839
   1.69518    3.43107
   1.71314    3.81054
   1.72902    4.24989
   1.74403    4.52007
   1.75821    4.84713
    1.7716    5.17704
   1.78426     5.5406
   1.79621    5.91485
   1.80751     6.3152
   1.81818    6.74412
   1.82826    7.20802
   1.83779    7.69941
   1.84679    8.21918
   1.85529    8.78223
   1.86332    9.39381
   1.87091    10.0493
   1.87808    10.7557
   1.88485    11.5146
   1.89125    12.3298
   1.89729    13.2143
     1.903    14.1786
    1.9084    15.2216
    1.9135    16.3495
   1.91831    17.5663
   1.92286    18.8803
   1.92716    20.2974
   1.93122    21.8282
   1.93506    23.4833
   1.93868     25.276
   1.94211    27.2179
   1.94534    29.3219
    1.9484    31.6002
   1.95129    34.0688
   1.95401    36.7512
   1.95659    39.6607
   1.95903    42.8179
   1.96133    46.2515
    1.9635    49.9811
   1.96555    54.0245
   1.96749    58.4038
   1.96933    63.1355
   1.97106    68.2281
   1.97269    73.6889
   1.97424    79.5224
    1.9757    85.7264
   1.97708    92.2894
   1.97838    99.1907
   1.97961    106.398
   1.98077    113.861
   1.98187    121.514
   1.98291    129.272
   1.98389    137.041
   1.98482    144.718
   1.98569    152.203
   1.98652    159.409
    1.9873    166.278
   1.98804    172.795
   1.98874    179.001
    1.9894    185.005
   1.99002    190.984
   1.99061     197.17
   1.99116    203.833
   1.99169    211.252
   1.99218    219.681
   1.99265    229.534
    1.9931    241.204
   1.99355    255.158
   1.99399    271.961
   1.99444    291.806
   1.99488    314.433
   1.99533    339.189
   1.99577    365.011
   1.99622    390.491
   1.99666    414.054
   1.99711    434.234
   1.99755     449.99
     1.998    460.962
   1.99844    467.585
   1.99889    471.028
   1.99933    473.005
   1.99978    475.667
         2    477.933
