         0   -50.2727
 0.0002225   -50.2588
 0.0006675   -50.2155
 0.0011125   -50.1251
 0.0015575    -49.956
 0.0020025   -49.6776
 0.0024475   -49.2634
 0.0028925    -48.693
 0.0033375   -47.9542
 0.0037825    -47.044
 0.0042275   -45.9682
 0.0046725   -44.7408
 0.0051175   -43.3817
 0.0055625   -41.9153
 0.0060075   -40.3677
 0.0064525   -38.7653
 0.0068975   -37.1326
 0.0073476   -35.4749
0.00781612   -33.7672
0.00831203   -31.9985
0.00883694   -30.1868
0.00939255   -28.3527
0.00998065   -26.5171
 0.0106031   -24.7004
  0.011262   -22.9214
 0.0119594   -21.1969
 0.0126977   -19.5409
  0.013479   -17.9644
 0.0143061   -16.4751
 0.0151815   -15.0778
 0.0161082   -13.7748
  0.017089   -12.5661
 0.0181271   -11.4502
  0.019226   -10.4232
 0.0203891   -9.48009
 0.0216203    -8.6156
 0.0229234   -7.82553
 0.0243028   -7.10742
 0.0257628   -6.45913
 0.0273082   -5.87585
  0.028944   -5.34862
 0.0306754   -4.86712
 0.0325081    -4.4251
 0.0344479   -4.02406
 0.0365012   -3.67058
 0.0386746   -3.36735
  0.040975    -3.1079
   0.04341   -2.88287
 0.0459873   -2.68682
 0.0487154    -2.5143
  0.051603   -2.35277
 0.0546595   -2.19013
 0.0578947   -2.03386
 0.0613191   -1.90148
 0.0649437   -1.79403
 0.0687803     -1.703
 0.0728413    -1.6192
 0.0771397   -1.55214
 0.0816895   -1.51644
 0.0865054   -1.47972
 0.0916029   -1.40282
 0.0969985   -1.30509
   0.10271   -1.22072
  0.108755   -1.16089
  0.115153   -1.11508
  0.121926   -1.06136
  0.129095  -0.997532
  0.136683  -0.936332
  0.144715  -0.902285
  0.153216   -0.87873
  0.162214  -0.845505
  0.171739  -0.824361
  0.181821  -0.817864
  0.192492   -0.80956
  0.203788  -0.782042
  0.215744  -0.723508
  0.228399  -0.676062
  0.241794   -0.61786
  0.255972  -0.605405
   0.27098  -0.603026
  0.286865  -0.578567
  0.304824  -0.595957
  0.324407  -0.584393
  0.343989  -0.558768
  0.363571  -0.503569
  0.383154  -0.467207
  0.402736   -0.45154
  0.422319   -0.42248
  0.441901  -0.411143
  0.461484  -0.388732
  0.481066  -0.369294
  0.500648  -0.365696
  0.520231   -0.35657
  0.539813  -0.348774
  0.559396  -0.332305
  0.578978  -0.312211
   0.59856  -0.321851
  0.618143  -0.328772
  0.637725  -0.297449
  0.657308  -0.257262
   0.67689  -0.240643
  0.696473  -0.230786
  0.716055  -0.211378
  0.735637   -0.19232
   0.75522  -0.175914
  0.774802  -0.169148
  0.794385  -0.166327
  0.813967  -0.149906
  0.833549    -0.1269
  0.853132  -0.103532
  0.872714 -0.0790459
  0.892297 -0.0588263
  0.911879 -0.0425398
  0.931462 -0.0271272
  0.951044 -0.0164022
  0.970626 -0.0130739
  0.990209 -0.0105616
   1.00979 -0.000552151
   1.02937  0.0161751
   1.04896   0.036623
   1.06854  0.0578449
   1.08812  0.0780816
    1.1077   0.102692
   1.12729   0.125519
   1.14687   0.133754
   1.16645   0.133329
   1.18603   0.139474
   1.20562   0.164556
    1.2252   0.188378
   1.24478   0.199257
   1.26436   0.227806
   1.28395   0.265803
   1.30353   0.292857
   1.32311   0.310127
   1.34269   0.316304
   1.36228   0.324647
   1.38186   0.331672
   1.40144   0.339302
   1.42102   0.352951
   1.44061   0.367213
   1.46019   0.370797
   1.47977   0.372587
   1.49935   0.407395
   1.51894    0.44376
   1.53852   0.432927
    1.5581   0.411892
   1.57768   0.411619
   1.59727   0.440544
   1.61685   0.474923
   1.63643   0.500038
   1.65601    0.50716
    1.6756   0.506564
   1.69518   0.524487
   1.71314    0.52242
   1.72902   0.562893
   1.74403   0.590719
   1.75821    0.58225
    1.7716   0.596412
   1.78426   0.636181
   1.79621   0.681007
   1.80751   0.702701
   1.81818   0.736392
   1.82826    0.75395
   1.83779     0.7808
   1.84679   0.844064
   1.85529   0.894988
   1.86332   0.912913
   1.87091   0.935987
   1.87808   0.982356
   1.88485    1.03708
   1.89125    1.09243
   1.89729    1.14827
     1.903    1.20894
    1.9084    1.27586
    1.9135    1.34891
   1.91831    1.42421
   1.92286    1.49783
   1.92716    1.57889
   1.93122    1.66875
   1.93506    1.76903
   1.93868     1.8858
   1.94211    2.00981
   1.94534    2.13901
    1.9484    2.28785
   1.95129    2.46634
   1.95401    2.67179
   1.95659    2.89952
   1.95903    3.15391
   1.96133    3.44048
    1.9635    3.76036
   1.96555    4.11551
   1.96749    4.50956
   1.96933    4.94571
   1.97106    5.42659
   1.97269    5.95487
   1.97424    6.53437
    1.9757    7.17154
   1.97708    7.87481
   1.97838    8.65203
   1.97961    9.50888
   1.98077    10.4492
   1.98187    11.4758
   1.98291    12.5917
   1.98389    13.7998
   1.98482    15.1029
   1.98569    16.5023
   1.98652    17.9969
    1.9873    19.5822
   1.98804    21.2502
   1.98874    22.9887
    1.9894    24.7827
   1.99002     26.614
   1.99061    28.4629
   1.99116    30.3083
   1.99169    32.1288
   1.99218    33.9038
   1.99265    35.6157
    1.9931    37.2757
   1.99355    38.9091
   1.99399    40.5112
   1.99444    42.0575
   1.99488    43.5217
   1.99533    44.8779
   1.99577     46.102
   1.99622    47.1737
   1.99666    48.0793
   1.99711    48.8127
   1.99755     49.377
     1.998    49.7847
   1.99844    50.0565
   1.99889    50.2196
   1.99933    50.3054
   1.99978    50.3462
         2    50.3594
