         0          0
  0.000445 4.33727e-12
  0.001335 3.48411e-10
  0.002225 2.66627e-09
  0.003115 1.01587e-08
  0.004005 2.75307e-08
  0.004895 6.09231e-08
  0.005785 1.17838e-07
  0.006675 2.07058e-07
0.00756867 3.39193e-07
0.00852095 5.3948e-07
0.00958982 8.55348e-07
 0.0107896 1.35144e-06
 0.0121362 2.12667e-06
 0.0136477 3.33044e-06
 0.0153442 5.1846e-06
 0.0172484 8.01122e-06
 0.0193858 1.22645e-05
 0.0217849 1.85615e-05
 0.0244777 2.7706e-05
 0.0275001 3.99526e-05
 0.0308926 5.12319e-05
 0.0347005 5.75127e-05
 0.0389746 6.03381e-05
 0.0437719 6.24058e-05
 0.0491566 6.40408e-05
 0.0552005 6.51312e-05
 0.0619844 6.55794e-05
 0.0695988 6.53248e-05
 0.0781455 6.43821e-05
 0.0877386 6.28558e-05
 0.0985062 6.09146e-05
  0.110592 5.87936e-05
  0.124158 5.66427e-05
  0.139384 5.45051e-05
  0.156474 5.25625e-05
  0.175657 5.1023e-05
  0.197189 4.99839e-05
  0.221357 4.90128e-05
  0.248483 4.78484e-05
  0.278931 4.65426e-05
  0.314615 4.77311e-05
   0.35378 4.38335e-05
  0.392945 4.13919e-05
   0.43211 3.96373e-05
  0.471275 3.78592e-05
   0.51044 3.59642e-05
  0.549604 3.44079e-05
  0.588769 3.26247e-05
  0.627934 3.0951e-05
  0.667099 2.96664e-05
  0.706264 2.84661e-05
  0.745429 2.69446e-05
  0.784593 2.52883e-05
  0.823758   2.42e-05
  0.862923 2.37459e-05
  0.902088 2.33866e-05
  0.941253 2.28404e-05
  0.980418 2.22386e-05
   1.01958 2.17919e-05
   1.05875 2.17101e-05
   1.09791 2.20326e-05
   1.13708 2.26489e-05
   1.17624 2.3539e-05
   1.21541 2.45194e-05
   1.25457 2.55625e-05
   1.29374 2.6871e-05
    1.3329 2.83786e-05
   1.37207 2.98794e-05
   1.41123 3.15742e-05
    1.4504 3.33775e-05
   1.48956 3.51666e-05
   1.52873 3.69282e-05
   1.56789 3.92091e-05
   1.60706 4.21222e-05
   1.64622 4.52312e-05
   1.68539 4.98865e-05
   1.72107 4.8298e-05
   1.75152 4.79163e-05
   1.77865 4.72459e-05
   1.80281 4.70548e-05
   1.82434 4.74991e-05
   1.84353 4.87949e-05
   1.86062 5.07255e-05
   1.87584 5.30506e-05
   1.88941 5.55818e-05
    1.9015 5.82068e-05
   1.91226 6.07188e-05
   1.92186 6.27867e-05
    1.9304 6.42019e-05
   1.93802 6.48477e-05
    1.9448 6.47034e-05
   1.95084 6.38337e-05
   1.95623 6.23516e-05
   1.96103 6.03871e-05
    1.9653 5.74857e-05
   1.96911 5.14219e-05
    1.9725 4.03616e-05
   1.97552 2.79043e-05
   1.97822 1.8679e-05
   1.98061 1.23355e-05
   1.98275 8.05218e-06
   1.98466 5.2075e-06
   1.98635 3.34296e-06
   1.98786 2.13342e-06
   1.98921 1.35506e-06
   1.99041 8.57278e-07
   1.99148 5.40511e-07
   1.99243 3.39743e-07
   1.99333 2.07341e-07
   1.99421 1.1797e-07
    1.9951 6.09762e-08
     1.996 2.75481e-08
   1.99689 1.01626e-08
   1.99777 2.66664e-09
   1.99867 3.48367e-10
   1.99956 4.33548e-12
         2          0
