         0          0
  0.000445 4.31179e-12
  0.001335 3.46422e-10
  0.002225 2.65146e-09
  0.003115 1.01038e-08
  0.004005 2.73863e-08
  0.004895 6.06132e-08
  0.005785 1.17258e-07
  0.006675 2.06074e-07
0.00756867 3.37643e-07
0.00852095 5.37124e-07
0.00958982 8.51817e-07
 0.0107896 1.34624e-06
 0.0121362 2.11916e-06
 0.0136477 3.31985e-06
 0.0153442 5.17004e-06
 0.0172484 7.99165e-06
 0.0193858 1.22385e-05
 0.0217849 1.85269e-05
 0.0244777 2.76603e-05
 0.0275001 3.98322e-05
 0.0308926 5.09834e-05
 0.0347005 5.72738e-05
 0.0389746 6.02116e-05
 0.0437719 6.22545e-05
 0.0491566 6.38344e-05
 0.0552005 6.48433e-05
 0.0619844 6.51945e-05
 0.0695988 6.48442e-05
 0.0781455 6.3809e-05
 0.0877386 6.21764e-05
 0.0985062 6.01032e-05
  0.110592 5.77909e-05
  0.124158 5.54487e-05
  0.139384 5.32607e-05
  0.156474 5.13673e-05
  0.175657  4.985e-05
  0.197189 4.87229e-05
  0.221357 4.79406e-05
  0.248483 4.74274e-05
  0.278931 4.69955e-05
  0.314615 4.90113e-05
   0.35378 4.52856e-05
  0.392945 4.22627e-05
   0.43211 3.96221e-05
  0.471275 3.72744e-05
   0.51044 3.51511e-05
  0.549604 3.32037e-05
  0.588769 3.14028e-05
  0.627934 2.97433e-05
  0.667099 2.82335e-05
  0.706264 2.68697e-05
  0.745429 2.56466e-05
  0.784593 2.45608e-05
  0.823758 2.36274e-05
  0.862923 2.28588e-05
  0.902088 2.2272e-05
  0.941253 2.18827e-05
  0.980418 2.16914e-05
   1.01958 2.17002e-05
   1.05875 2.19202e-05
   1.09791 2.23456e-05
   1.13708 2.29539e-05
   1.17624 2.37263e-05
   1.21541 2.46677e-05
   1.25457 2.57793e-05
   1.29374 2.70343e-05
    1.3329 2.84064e-05
   1.37207 2.9893e-05
   1.41123 3.15235e-05
    1.4504 3.3313e-05
   1.48956 3.52654e-05
   1.52873 3.7391e-05
   1.56789 3.97695e-05
   1.60706 4.24814e-05
   1.64622 4.55686e-05
   1.68539 4.93117e-05
   1.72107 4.72038e-05
   1.75152 4.75202e-05
   1.77865 4.79138e-05
   1.80281 4.85581e-05
   1.82434 4.95271e-05
   1.84353 5.08954e-05
   1.86062 5.26933e-05
   1.87584 5.48703e-05
   1.88941 5.72846e-05
    1.9015 5.97267e-05
   1.91226 6.1959e-05
   1.92186 6.37557e-05
    1.9304 6.49439e-05
   1.93802 6.54257e-05
    1.9448 6.51795e-05
   1.95084 6.42482e-05
   1.95623 6.27213e-05
   1.96103 6.07111e-05
    1.9653 5.78085e-05
   1.96911 5.16262e-05
    1.9725 4.05812e-05
   1.97552 2.82411e-05
   1.97822 1.89298e-05
   1.98061 1.25127e-05
   1.98275 8.17466e-06
   1.98466 5.29038e-06
   1.98635 3.39806e-06
   1.98786 2.16952e-06
   1.98921 1.37844e-06
   1.99041 8.72293e-07
   1.99148 5.50085e-07
   1.99243 3.45816e-07
   1.99333 2.11075e-07
   1.99421 1.20109e-07
    1.9951 6.20896e-08
     1.996 2.80545e-08
   1.99689 1.03507e-08
   1.99777 2.71636e-09
   1.99867 3.54914e-10
   1.99956 4.41766e-12
         2          0
