         0 0.00185993
  0.000445 0.00185993
  0.001335 0.00185993
  0.002225 0.00185993
  0.003115 0.00185992
  0.004005  0.0018599
  0.004895 0.00185987
  0.005785 0.00185982
  0.006675 0.00185974
0.00756867 0.00185962
0.00852095 0.00185945
0.00958982 0.00185918
 0.0107896 0.00185877
 0.0121362 0.00185815
 0.0136477 0.00185721
 0.0153442  0.0018558
 0.0172484 0.00185371
 0.0193858 0.00185063
 0.0217849 0.00184618
 0.0244777 0.00184015
 0.0275001 0.00183255
 0.0308926 0.00182307
 0.0347005 0.00181052
 0.0389746 0.00179343
 0.0437719 0.00177065
 0.0491566  0.0017409
 0.0552005 0.00170253
 0.0619844 0.00165361
 0.0695988 0.00159206
 0.0781455 0.00151589
 0.0877386 0.00142312
 0.0985062 0.00131197
  0.110592 0.00118015
  0.124158 0.00102562
  0.139384 0.000847034
  0.156474 0.000647235
  0.175657 0.000434629
  0.197189 0.00022074
  0.221357 2.08918e-05
  0.248483 -0.000143314
  0.278931 -0.000266527
  0.314615 -0.000369243
   0.35378 -0.000441642
  0.392945 -0.000460361
   0.43211 -0.000441106
  0.471275 -0.000404959
   0.51044 -0.000322748
  0.549604 -0.000235627
  0.588769 -0.000177965
  0.627934 -0.000132456
  0.667099 -8.96035e-05
  0.706264 -4.51701e-05
  0.745429 -6.03412e-06
  0.784593 2.87943e-05
  0.823758 7.20402e-05
  0.862923 0.00013028
  0.902088 0.000195547
  0.941253 0.000252526
  0.980418 0.000292347
   1.01958 0.000323268
   1.05875 0.00034236
   1.09791 0.000346213
   1.13708 0.000331711
   1.17624 0.000296178
   1.21541 0.000256764
   1.25457 0.000220051
   1.29374 0.000171101
    1.3329 0.000110231
   1.37207 3.49568e-05
   1.41123 -5.22691e-05
    1.4504 -0.000143674
   1.48956 -0.000235707
   1.52873 -0.000302736
   1.56789 -0.000322012
   1.60706 -0.000292706
   1.64622 -0.000216805
   1.68539 -0.000144544
   1.72107 -8.83331e-05
   1.75152 -1.10598e-05
   1.77865 0.000111075
   1.80281 0.000279937
   1.82434 0.000479115
   1.84353 0.000685465
   1.86062 0.000883455
   1.87584 0.00106383
   1.88941 0.00122149
    1.9015 0.00135486
   1.91226  0.0014647
   1.92186 0.00155345
    1.9304 0.00162423
   1.93802  0.0016801
    1.9448 0.00172374
   1.95084 0.00175749
   1.95623 0.00178332
   1.96103 0.00180281
    1.9653 0.00181717
   1.96911 0.00182759
    1.9725  0.0018355
   1.97552 0.00184197
   1.97822 0.00184708
   1.98061 0.00185075
   1.98275 0.00185323
   1.98466 0.00185488
   1.98635 0.00185597
   1.98786 0.00185669
   1.98921 0.00185716
   1.99041 0.00185747
   1.99148 0.00185766
   1.99243 0.00185779
   1.99333 0.00185787
   1.99421 0.00185793
    1.9951 0.00185797
     1.996 0.00185799
   1.99689   0.001858
   1.99777 0.00185801
   1.99867 0.00185801
   1.99956 0.00185801
         2 0.00185801
