         0 0.00133207
  0.000445 0.00133207
  0.001335 0.00133207
  0.002225 0.00133207
  0.003115 0.00133206
  0.004005 0.00133205
  0.004895 0.00133203
  0.005785 0.00133198
  0.006675 0.00133192
0.00756867 0.00133183
0.00852095 0.00133169
0.00958982 0.00133147
 0.0107896 0.00133114
 0.0121362 0.00133063
 0.0136477 0.00132985
 0.0153442 0.00132866
 0.0172484 0.00132689
 0.0193858 0.00132423
 0.0217849 0.00132035
 0.0244777 0.00131502
 0.0275001 0.00130832
 0.0308926 0.00130008
 0.0347005  0.0012892
 0.0389746 0.00127426
 0.0437719 0.00125411
 0.0491566 0.00122748
 0.0552005 0.00119274
 0.0619844 0.00114784
 0.0695988 0.00109041
 0.0781455 0.00101785
 0.0877386 0.000927482
 0.0985062 0.000816782
  0.110592 0.00068386
  0.124158 0.000528009
  0.139384 0.000350301
  0.156474 0.00015405
  0.175657 -5.48722e-05
  0.197189 -0.000267824
  0.221357 -0.000472874
  0.248483 -0.000656629
  0.278931 -0.000802603
  0.314615 -0.000901543
   0.35378 -0.000948296
  0.392945 -0.00094812
   0.43211 -0.000913692
  0.471275 -0.000860509
   0.51044 -0.000794806
  0.549604 -0.000722298
  0.588769 -0.000646617
  0.627934 -0.000571667
  0.667099 -0.000500686
  0.706264 -0.000435886
  0.745429 -0.000377775
  0.784593 -0.000326146
  0.823758 -0.000281129
  0.862923 -0.00024358
  0.902088 -0.000214629
  0.941253 -0.000195066
  0.980418 -0.000185107
   1.01958 -0.00018477
   1.05875 -0.000193936
   1.09791 -0.00021237
   1.13708 -0.000239665
   1.17624 -0.000275852
   1.21541 -0.000321383
   1.25457 -0.000376446
   1.29374 -0.000440585
    1.3329 -0.000512792
   1.37207 -0.000591234
   1.41123 -0.000672236
    1.4504 -0.000752521
   1.48956 -0.000830796
   1.52873 -0.000904363
   1.56789 -0.000964814
   1.60706 -0.00100384
   1.64622 -0.00100692
   1.68539 -0.000962922
   1.72107 -0.00086621
   1.75152 -0.000720573
   1.77865 -0.000535462
   1.80281 -0.000327269
   1.82434 -0.00010869
   1.84353 0.00010786
   1.86062 0.000312395
   1.87584 0.000497805
   1.88941 0.000660172
    1.9015 0.000798349
   1.91226 0.000913206
   1.92186 0.00100685
    1.9304 0.00108196
   1.93802 0.00114138
    1.9448 0.00118783
   1.95084 0.00122377
   1.95623 0.00125132
   1.96103 0.00127218
    1.9653 0.00128765
   1.96911 0.00129891
    1.9725 0.00130744
   1.97552 0.00131438
   1.97822 0.00131991
   1.98061 0.00132394
   1.98275 0.00132669
   1.98466 0.00132853
   1.98635 0.00132976
   1.98786 0.00133057
   1.98921  0.0013311
   1.99041 0.00133145
   1.99148 0.00133167
   1.99243 0.00133182
   1.99333 0.00133191
   1.99421 0.00133198
    1.9951 0.00133202
     1.996 0.00133205
   1.99689 0.00133206
   1.99777 0.00133207
   1.99867 0.00133207
   1.99956 0.00133207
         2 0.00133207
