         0 6.27474e-05
  0.000445 6.27474e-05
  0.001335 6.2729e-05
  0.002225 6.27091e-05
  0.003115 6.26922e-05
  0.004005 6.26782e-05
  0.004895 6.26666e-05
  0.005785 6.26572e-05
  0.006675  6.265e-05
0.00756867 6.2645e-05
0.00852095 6.2642e-05
0.00958982 6.26415e-05
 0.0107896 6.26445e-05
 0.0121362 6.26523e-05
 0.0136477 6.26664e-05
 0.0153442 6.26886e-05
 0.0172484 6.27214e-05
 0.0193858 6.27674e-05
 0.0217849  6.283e-05
 0.0244777 6.29138e-05
 0.0275001 6.30256e-05
 0.0308926 6.3174e-05
 0.0347005 6.33682e-05
 0.0389746 6.36173e-05
 0.0437719 6.39309e-05
 0.0491566 6.43194e-05
 0.0552005 6.47944e-05
 0.0619844 6.5368e-05
 0.0695988 6.60512e-05
 0.0781455 6.68524e-05
 0.0877386 6.77747e-05
 0.0985062 6.8812e-05
  0.110592 6.99458e-05
  0.124158 7.11413e-05
  0.139384 7.23468e-05
  0.156474 7.34956e-05
  0.175657 7.4509e-05
  0.197189 7.52954e-05
  0.221357 7.57519e-05
  0.248483 7.57758e-05
  0.278931 7.53043e-05
  0.314615 7.42626e-05
   0.35378 7.24007e-05
  0.392945 7.03537e-05
   0.43211 6.82134e-05
  0.471275 6.60163e-05
   0.51044 6.38118e-05
  0.549604 6.16247e-05
  0.588769 5.94844e-05
  0.627934 5.74153e-05
  0.667099 5.5446e-05
  0.706264 5.36146e-05
  0.745429 5.19522e-05
  0.784593 5.0474e-05
  0.823758 4.92064e-05
  0.862923 4.81714e-05
  0.902088 4.73863e-05
  0.941253 4.68675e-05
  0.980418 4.66218e-05
   1.01958 4.66558e-05
   1.05875 4.69728e-05
   1.09791 4.7565e-05
   1.13708 4.84126e-05
   1.17624 4.94893e-05
   1.21541 5.07733e-05
   1.25457 5.22461e-05
   1.29374 5.38911e-05
    1.3329 5.56957e-05
   1.37207 5.76375e-05
   1.41123 5.96816e-05
    1.4504 6.18074e-05
   1.48956 6.4014e-05
   1.52873 6.62702e-05
   1.56789 6.85263e-05
   1.60706 7.0705e-05
   1.64622 7.27454e-05
   1.68539 7.45912e-05
   1.72107 7.57079e-05
   1.75152 7.6351e-05
   1.77865 7.65039e-05
   1.80281 7.61804e-05
   1.82434 7.54718e-05
   1.84353 7.44847e-05
   1.86062 7.33259e-05
   1.87584 7.20922e-05
   1.88941 7.08619e-05
    1.9015 6.96919e-05
   1.91226 6.86192e-05
   1.92186 6.76636e-05
    1.9304 6.68318e-05
   1.93802 6.61213e-05
    1.9448 6.55241e-05
   1.95084 6.50292e-05
   1.95623 6.46242e-05
   1.96103 6.42973e-05
    1.9653 6.40375e-05
   1.96911 6.38349e-05
    1.9725 6.36799e-05
   1.97552 6.35632e-05
   1.97822 6.34757e-05
   1.98061 6.34104e-05
   1.98275 6.33624e-05
   1.98466 6.33281e-05
   1.98635 6.33048e-05
   1.98786 6.32899e-05
   1.98921 6.32817e-05
   1.99041 6.32784e-05
   1.99148 6.32788e-05
   1.99243 6.32819e-05
   1.99333 6.3287e-05
   1.99421 6.32943e-05
    1.9951 6.3304e-05
     1.996 6.3316e-05
   1.99689 6.33305e-05
   1.99777 6.3348e-05
   1.99867 6.33686e-05
   1.99956 6.33876e-05
         2 6.33876e-05
