         0          0
  0.000445 0.00490169
  0.001335  0.0146963
  0.002225  0.0244819
  0.003115   0.034258
  0.004005  0.0440241
  0.004895  0.0537791
  0.005785  0.0635217
  0.006675  0.0732502
0.00756867  0.0830026
0.00852095  0.0933741
0.00958982   0.104985
 0.0107896   0.117972
 0.0121362   0.132479
 0.0136477   0.148654
 0.0153442   0.166641
 0.0172484   0.186566
 0.0193858   0.208525
 0.0217849   0.232556
 0.0244777   0.258613
 0.0275001   0.286573
 0.0308926   0.316436
 0.0347005   0.348479
 0.0389746    0.38301
 0.0437719   0.420096
 0.0491566   0.459595
 0.0552005   0.501233
 0.0619844     0.5446
 0.0695988   0.589147
 0.0781455   0.634194
 0.0877386   0.678968
 0.0985062   0.722683
  0.110592   0.764634
  0.124158   0.804293
  0.139384   0.841317
  0.156474   0.875466
  0.175657   0.906577
  0.197189   0.934709
  0.221357   0.960316
  0.248483   0.983575
  0.278931    1.00392
  0.314615    1.02144
   0.35378    1.03617
  0.392945    1.04957
   0.43211    1.06193
  0.471275    1.07315
   0.51044    1.08391
  0.549604    1.09497
  0.588769    1.10597
  0.627934     1.1164
  0.667099    1.12621
  0.706264    1.13488
  0.745429    1.14193
  0.784593    1.14746
  0.823758    1.15197
  0.862923    1.15599
  0.902088    1.15955
  0.941253    1.16273
  0.980418    1.16536
   1.01958    1.16678
   1.05875    1.16673
   1.09791    1.16508
   1.13708    1.16178
   1.17624    1.15667
   1.21541    1.15001
   1.25457    1.14234
   1.29374    1.13386
    1.3329    1.12456
   1.37207    1.11431
   1.41123    1.10279
    1.4504    1.08977
   1.48956    1.07527
   1.52873     1.0599
   1.56789    1.04458
   1.60706    1.02883
   1.64622    1.01118
   1.68539   0.991002
   1.72107   0.969349
   1.75152    0.94826
   1.77865   0.927239
   1.80281   0.905382
   1.82434   0.881578
   1.84353   0.855002
   1.86062   0.825216
   1.87584   0.792099
   1.88941   0.755805
    1.9015   0.716687
   1.91226   0.675269
   1.92186   0.632251
    1.9304   0.588458
   1.93802   0.544736
    1.9448   0.501864
   1.95084   0.460485
   1.95623    0.42109
   1.96103   0.384014
    1.9653   0.349436
   1.96911   0.317329
    1.9725   0.287407
   1.97552   0.259377
   1.97822   0.233239
   1.98061   0.209127
   1.98275   0.187093
   1.98466   0.167101
   1.98635   0.149057
   1.98786   0.132833
   1.98921   0.118283
   1.99041   0.105259
   1.99148  0.0936164
   1.99243   0.083217
   1.99333  0.0734388
   1.99421  0.0636847
    1.9951  0.0539168
     1.996  0.0441366
   1.99689  0.0343455
   1.99777  0.0245444
   1.99867  0.0147338
   1.99956 0.00491419
         2          0
