         0          0
  0.000445 2.53635e-10
  0.001335 7.60165e-10
  0.002225 1.20441e-09
  0.003115 1.60551e-09
  0.004005 1.85467e-09
  0.004895 2.15507e-09
  0.005785 2.13741e-09
  0.006675 2.64807e-09
0.00756867 4.41113e-09
0.00852095 8.11747e-09
0.00958982 1.33498e-08
 0.0107896 2.04951e-08
 0.0121362 3.05974e-08
 0.0136477 4.52579e-08
 0.0153442 6.86071e-08
 0.0172484 9.5144e-08
 0.0193858 5.48941e-08
 0.0217849 -2.15097e-07
 0.0244777 -3.74251e-07
 0.0275001 3.75177e-07
 0.0308926 9.78293e-07
 0.0347005 1.95901e-07
 0.0389746 -4.08358e-07
 0.0437719 -2.26068e-07
 0.0491566 -2.58264e-07
 0.0552005 -6.69911e-07
 0.0619844 -1.38338e-06
 0.0695988 -2.35319e-06
 0.0781455 -3.25126e-06
 0.0877386 -3.9801e-06
 0.0985062 -5.05541e-06
  0.110592 -7.81688e-06
  0.124158 -1.36905e-05
  0.139384 -2.10867e-05
  0.156474 -2.50382e-05
  0.175657 -2.04291e-05
  0.197189 -2.62033e-05
  0.221357 -1.79303e-05
  0.248483 -7.87284e-06
  0.278931 -2.70577e-06
  0.314615 -1.26659e-05
   0.35378 -3.54491e-05
  0.392945 4.30252e-05
   0.43211 -1.70498e-05
  0.471275 7.89021e-06
   0.51044 2.51942e-05
  0.549604 -1.10304e-05
  0.588769 -8.82094e-06
  0.627934 -6.99482e-06
  0.667099 1.05679e-06
  0.706264 -1.0216e-05
  0.745429 -9.3242e-06
  0.784593 -2.1337e-05
  0.823758 3.77562e-06
  0.862923 9.24321e-06
  0.902088 9.06954e-06
  0.941253 -1.83651e-06
  0.980418 -5.61618e-06
   1.01958 1.46427e-05
   1.05875 4.10298e-06
   1.09791 6.69691e-06
   1.13708 -1.99303e-06
   1.17624 -2.20366e-05
   1.21541 6.72498e-06
   1.25457 1.58478e-05
   1.29374 6.02334e-06
    1.3329 4.77495e-07
   1.37207 -1.00304e-05
   1.41123 4.50798e-06
    1.4504 -5.33853e-07
   1.48956 -2.99968e-05
   1.52873 1.21379e-06
   1.56789 -9.4537e-06
   1.60706 1.86958e-05
   1.64622 4.76668e-05
   1.68539 -2.12191e-05
   1.72107 -1.44406e-05
   1.75152 -7.21165e-06
   1.77865 5.91851e-06
   1.80281 2.75381e-05
   1.82434 2.70141e-05
   1.84353 2.60081e-05
   1.86062 2.16391e-05
   1.87584 1.79481e-05
   1.88941 1.34306e-05
    1.9015 8.20489e-06
   1.91226 4.32178e-06
   1.92186 2.32601e-06
    1.9304 1.33785e-06
   1.93802 7.43821e-07
    1.9448 3.46726e-07
   1.95084 1.28745e-07
   1.95623 2.04362e-07
   1.96103 2.88578e-07
    1.9653 -3.93881e-07
   1.96911 -1.07393e-06
    1.9725 -2.26857e-07
   1.97552 4.82011e-07
   1.97822 1.66409e-07
   1.98061 -8.59371e-08
   1.98275 -9.63413e-08
   1.98466 -6.28614e-08
   1.98635 -3.98554e-08
   1.98786 -2.62181e-08
   1.98921 -1.70922e-08
   1.99041 -1.07677e-08
   1.99148 -6.41832e-09
   1.99243 -3.45755e-09
   1.99333 -2.02983e-09
   1.99421 -1.68486e-09
    1.9951 -1.59204e-09
     1.996 -1.39393e-09
   1.99689 -1.15195e-09
   1.99777 -8.68259e-10
   1.99867 -5.26736e-10
   1.99956 -1.74544e-10
         2          0
