         0          0
  0.000445 -1.03286e-05
  0.001335 -3.09798e-05
  0.002225 -5.16141e-05
  0.003115 -7.22262e-05
  0.004005 -9.28121e-05
  0.004895 -0.000113372
  0.005785 -0.000133911
  0.006675 -0.000154431
0.00756867 -0.000175031
0.00852095 -0.000196987
0.00958982 -0.000221664
 0.0107896 -0.000249447
 0.0121362 -0.000280816
 0.0136477 -0.000316385
 0.0153442 -0.000356961
 0.0172484 -0.000403611
 0.0193858 -0.000457716
 0.0217849 -0.000520979
 0.0244777 -0.000595256
 0.0275001 -0.000681796
 0.0308926 -0.000783685
 0.0347005 -0.000908133
 0.0389746 -0.00106242
 0.0437719 -0.0012519
 0.0491566 -0.00147794
 0.0552005 -0.00173345
 0.0619844 -0.00199616
 0.0695988 -0.00222386
 0.0781455 -0.00235717
 0.0877386 -0.00233527
 0.0985062 -0.00212223
  0.110592 -0.00173012
  0.124158 -0.00121409
  0.139384 -0.00063257
  0.156474 -9.3217e-06
  0.175657 0.000623333
  0.197189 0.00115132
  0.221357 0.00136272
  0.248483 0.00105861
  0.278931 0.00077312
  0.314615 0.00122591
   0.35378 0.00165089
  0.392945  0.0011603
   0.43211 0.000433352
  0.471275 -0.000412519
   0.51044 -0.00132576
  0.549604 -0.00177438
  0.588769 -0.00211031
  0.627934 -0.00237644
  0.667099 -0.00187663
  0.706264 -0.000401664
  0.745429 0.00109466
  0.784593 0.00165706
  0.823758 0.00130879
  0.862923 0.000271177
  0.902088 -0.00099364
  0.941253 -0.00195218
  0.980418 -0.00258728
   1.01958 -0.00288794
   1.05875 -0.00284167
   1.09791 -0.00237819
   1.13708 -0.00156314
   1.17624 -0.000848886
   1.21541 -0.000323607
   1.25457 0.000300271
   1.29374 0.00097278
    1.3329 0.00189106
   1.37207 0.00346073
   1.41123 0.00516575
    1.4504 0.00604638
   1.48956 0.00575659
   1.52873 0.00470224
   1.56789 0.00305853
   1.60706 0.00136384
   1.64622 8.39872e-06
   1.68539 -0.000773899
   1.72107 -0.000957863
   1.75152 -0.00111015
   1.77865 -0.0013637
   1.80281 -0.00177626
   1.82434 -0.00218857
   1.84353 -0.0023718
   1.86062 -0.00223377
   1.87584 -0.00186109
   1.88941 -0.00139998
    1.9015 -0.000967868
   1.91226 -0.000625287
   1.92186 -0.000382846
    1.9304 -0.00022234
   1.93802 -0.000117549
    1.9448 -4.73397e-05
   1.95084 9.00975e-07
   1.95623 3.36486e-05
   1.96103 5.4636e-05
    1.9653 6.6528e-05
   1.96911 7.23398e-05
    1.9725 7.40679e-05
   1.97552 7.25075e-05
   1.97822 6.92283e-05
   1.98061 6.53586e-05
   1.98275 6.1116e-05
   1.98466 5.66608e-05
   1.98635 5.21284e-05
   1.98786 4.76386e-05
   1.98921 4.32883e-05
   1.99041 3.91495e-05
   1.99148 3.52679e-05
   1.99243 3.16697e-05
   1.99333 2.81863e-05
   1.99421 2.46243e-05
    1.9951 2.09796e-05
     1.996 1.72652e-05
   1.99689 1.34913e-05
   1.99777 9.67152e-06
   1.99867 5.81689e-06
   1.99956 1.94146e-06
         2          0
