         0          0
  0.000445 0.00490162
  0.001335  0.0146961
  0.002225  0.0244815
  0.003115  0.0342576
  0.004005  0.0440235
  0.004895  0.0537784
  0.005785  0.0635209
  0.006675  0.0732493
0.00756867  0.0830015
0.00852095   0.093373
0.00958982   0.104984
 0.0107896   0.117971
 0.0121362   0.132478
 0.0136477   0.148653
 0.0153442   0.166639
 0.0172484   0.186564
 0.0193858   0.208523
 0.0217849   0.232554
 0.0244777    0.25861
 0.0275001    0.28657
 0.0308926   0.316433
 0.0347005   0.348476
 0.0389746   0.383007
 0.0437719   0.420093
 0.0491566   0.459592
 0.0552005    0.50123
 0.0619844   0.544598
 0.0695988   0.589146
 0.0781455   0.634193
 0.0877386   0.678968
 0.0985062   0.722682
  0.110592   0.764631
  0.124158   0.804289
  0.139384   0.841311
  0.156474    0.87546
  0.175657   0.906573
  0.197189   0.934707
  0.221357   0.960316
  0.248483   0.983578
  0.278931    1.00392
  0.314615    1.02146
   0.35378    1.03618
  0.392945    1.04957
   0.43211    1.06193
  0.471275    1.07316
   0.51044    1.08392
  0.549604    1.09497
  0.588769    1.10597
  0.627934     1.1164
  0.667099    1.12621
  0.706264    1.13488
  0.745429    1.14192
  0.784593    1.14746
  0.823758    1.15197
  0.862923    1.15599
  0.902088    1.15955
  0.941253    1.16273
  0.980418    1.16536
   1.01958    1.16678
   1.05875    1.16673
   1.09791    1.16508
   1.13708    1.16178
   1.17624    1.15668
   1.21541    1.15001
   1.25457    1.14234
   1.29374    1.13385
    1.3329    1.12456
   1.37207    1.11432
   1.41123    1.10279
    1.4504    1.08977
   1.48956    1.07527
   1.52873     1.0599
   1.56789    1.04458
   1.60706    1.02884
   1.64622    1.01118
   1.68539   0.990994
   1.72107   0.969338
   1.75152   0.948254
   1.77865   0.927239
   1.80281   0.905386
   1.82434   0.881583
   1.84353   0.855007
   1.86062   0.825222
   1.87584   0.792104
   1.88941   0.755809
    1.9015   0.716689
   1.91226   0.675269
   1.92186   0.632249
    1.9304   0.588454
   1.93802   0.544732
    1.9448   0.501859
   1.95084    0.46048
   1.95623   0.421085
   1.96103   0.384008
    1.9653   0.349431
   1.96911   0.317324
    1.9725   0.287402
   1.97552   0.259373
   1.97822   0.233235
   1.98061   0.209123
   1.98275    0.18709
   1.98466   0.167098
   1.98635   0.149055
   1.98786   0.132831
   1.98921   0.118281
   1.99041   0.105258
   1.99148  0.0936148
   1.99243  0.0832156
   1.99333  0.0734375
   1.99421  0.0636837
    1.9951  0.0539159
     1.996  0.0441359
   1.99689  0.0343449
   1.99777  0.0245439
   1.99867  0.0147335
   1.99956 0.00491411
         2          0
