         0          0
  0.000445 2.52235e-10
  0.001335 7.58946e-10
  0.002225 1.20372e-09
  0.003115 1.60527e-09
  0.004005 1.85386e-09
  0.004895 2.15452e-09
  0.005785 2.13488e-09
  0.006675 2.64713e-09
0.00756867 4.40881e-09
0.00852095 8.1205e-09
0.00958982 1.33548e-08
 0.0107896 2.05034e-08
 0.0121362 3.06118e-08
 0.0136477 4.52864e-08
 0.0153442 6.86581e-08
 0.0172484 9.52101e-08
 0.0193858 5.4887e-08
 0.0217849 -2.15261e-07
 0.0244777 -3.73971e-07
 0.0275001 3.75514e-07
 0.0308926 9.78122e-07
 0.0347005 1.95624e-07
 0.0389746 -4.08174e-07
 0.0437719 -2.2335e-07
 0.0491566 -2.56143e-07
 0.0552005 -6.7287e-07
 0.0619844 -1.392e-06
 0.0695988 -2.36924e-06
 0.0781455 -3.26577e-06
 0.0877386 -3.991e-06
 0.0985062 -5.05834e-06
  0.110592 -7.82471e-06
  0.124158 -1.36866e-05
  0.139384 -2.10711e-05
  0.156474 -2.50217e-05
  0.175657 -2.03684e-05
  0.197189 -2.62092e-05
  0.221357 -1.81711e-05
  0.248483 -7.78536e-06
  0.278931 -2.6597e-06
  0.314615 -1.27815e-05
   0.35378 -3.5197e-05
  0.392945 4.31458e-05
   0.43211 -1.72783e-05
  0.471275 7.91205e-06
   0.51044 2.51814e-05
  0.549604 -1.10227e-05
  0.588769 -8.82689e-06
  0.627934 -6.94633e-06
  0.667099 1.10844e-06
  0.706264 -1.03415e-05
  0.745429 -9.32986e-06
  0.784593 -2.12284e-05
  0.823758 3.84963e-06
  0.862923 9.24106e-06
  0.902088 9.00302e-06
  0.941253 -1.74333e-06
  0.980418 -5.65918e-06
   1.01958 1.45729e-05
   1.05875 4.12442e-06
   1.09791 6.78349e-06
   1.13708 -2.15292e-06
   1.17624 -2.21103e-05
   1.21541 6.8758e-06
   1.25457 1.59939e-05
   1.29374 5.95738e-06
    1.3329 4.33658e-07
   1.37207 -9.8966e-06
   1.41123 4.30186e-06
    1.4504 -6.12578e-07
   1.48956 -2.98268e-05
   1.52873 1.11868e-06
   1.56789 -9.31985e-06
   1.60706 1.87315e-05
   1.64622 4.75273e-05
   1.68539 -2.11453e-05
   1.72107 -1.43592e-05
   1.75152 -7.29909e-06
   1.77865 5.87463e-06
   1.80281 2.75777e-05
   1.82434 2.70257e-05
   1.84353 2.60499e-05
   1.86062 2.1657e-05
   1.87584 1.79431e-05
   1.88941 1.34174e-05
    1.9015 8.18547e-06
   1.91226 4.31057e-06
   1.92186 2.32294e-06
    1.9304 1.33683e-06
   1.93802 7.4115e-07
    1.9448 3.45197e-07
   1.95084 1.2824e-07
   1.95623 2.03898e-07
   1.96103 2.88734e-07
    1.9653 -3.9374e-07
   1.96911 -1.07381e-06
    1.9725 -2.26524e-07
   1.97552 4.82091e-07
   1.97822 1.66296e-07
   1.98061 -8.59402e-08
   1.98275 -9.63145e-08
   1.98466 -6.28496e-08
   1.98635 -3.98486e-08
   1.98786 -2.6214e-08
   1.98921 -1.70899e-08
   1.99041 -1.07642e-08
   1.99148 -6.41634e-09
   1.99243 -3.45563e-09
   1.99333 -2.02955e-09
   1.99421 -1.68446e-09
    1.9951 -1.59188e-09
     1.996 -1.39411e-09
   1.99689 -1.15147e-09
   1.99777 -8.67806e-10
   1.99867 -5.26124e-10
   1.99956 -1.74656e-10
         2          0
