         0          0
  0.000445 -1.03133e-05
  0.001335 -3.09338e-05
  0.002225 -5.15377e-05
  0.003115 -7.212e-05
  0.004005 -9.26766e-05
  0.004895 -0.000113208
  0.005785 -0.000133719
  0.006675 -0.000154214
0.00756867 -0.000174789
0.00852095 -0.000196719
0.00958982 -0.000221371
 0.0107896 -0.000249127
 0.0121362 -0.000280471
 0.0136477 -0.000316016
 0.0153442 -0.000356572
 0.0172484 -0.000403207
 0.0193858 -0.000457305
 0.0217849 -0.000520568
 0.0244777 -0.000594856
 0.0275001 -0.000681415
 0.0308926 -0.000783332
 0.0347005 -0.000907816
 0.0389746 -0.00106215
 0.0437719 -0.00125167
 0.0491566 -0.00147776
 0.0552005 -0.00173326
 0.0619844 -0.00199589
 0.0695988 -0.00222336
 0.0781455 -0.0023564
 0.0877386 -0.00233436
 0.0985062 -0.0021215
  0.110592 -0.00172988
  0.124158 -0.0012143
  0.139384 -0.000632674
  0.156474 -8.56784e-06
  0.175657 0.000625513
  0.197189 0.00115477
  0.221357  0.0013669
  0.248483 0.00106189
  0.278931 0.00077342
  0.314615 0.00122586
   0.35378 0.00165373
  0.392945 0.00116307
   0.43211 0.000433581
  0.471275 -0.000410879
   0.51044 -0.00132049
  0.549604 -0.00176946
  0.588769 -0.00210913
  0.627934 -0.00238052
  0.667099 -0.00188566
  0.706264 -0.000411999
  0.745429 0.00108842
  0.784593  0.0016572
  0.823758 0.00131274
  0.862923 0.000275045
  0.902088 -0.000991808
  0.941253 -0.00195137
  0.980418 -0.00258598
   1.01958 -0.00288649
   1.05875 -0.00284154
   1.09791 -0.00238064
   1.13708 -0.00156777
   1.17624 -0.000852995
   1.21541 -0.000325385
   1.25457 0.000300899
   1.29374 0.00097609
    1.3329 0.00189821
   1.37207 0.00347065
   1.41123 0.00517449
    1.4504 0.00605208
   1.48956 0.00575842
   1.52873 0.00469891
   1.56789 0.00305362
   1.60706 0.00136087
   1.64622 6.40283e-06
   1.68539 -0.000776608
   1.72107 -0.000961574
   1.75152 -0.0011129
   1.77865 -0.00136586
   1.80281 -0.00177916
   1.82434 -0.00219225
   1.84353 -0.00237608
   1.86062 -0.00223809
   1.87584 -0.00186496
   1.88941 -0.00140329
    1.9015 -0.000970678
   1.91226 -0.000627678
   1.92186 -0.000384911
    1.9304 -0.000224163
   1.93802 -0.000119189
    1.9448 -4.88279e-05
   1.95084 -4.54113e-07
   1.95623 3.24138e-05
   1.96103 5.35099e-05
    1.9653   6.55e-05
   1.96911 7.14003e-05
    1.9725 7.32108e-05
   1.97552 7.17282e-05
   1.97822 6.85213e-05
   1.98061 6.47179e-05
   1.98275 6.05363e-05
   1.98466 5.61374e-05
   1.98635 5.16568e-05
   1.98786 4.72145e-05
   1.98921 4.29076e-05
   1.99041 3.88085e-05
   1.99148 3.49629e-05
   1.99243 3.13973e-05
   1.99333 2.79449e-05
   1.99421 2.44142e-05
    1.9951 2.08011e-05
     1.996 1.71187e-05
   1.99689 1.33771e-05
   1.99777 9.58975e-06
   1.99867 5.76776e-06
   1.99956 1.92507e-06
         2          0
