         0          0
  0.000445 2.00601e-06
  0.001335 6.01803e-06
  0.002225 1.00301e-05
  0.003115 1.40421e-05
  0.004005 1.80544e-05
  0.004895 2.20668e-05
  0.005785 2.60796e-05
  0.006675 3.00928e-05
0.00756867 3.41228e-05
0.00852095 3.84172e-05
0.00958982 4.32373e-05
 0.0107896 4.86463e-05
 0.0121362 5.47145e-05
 0.0136477 6.15178e-05
 0.0153442 6.91373e-05
 0.0172484 7.7655e-05
 0.0193858 8.71482e-05
 0.0217849 9.76778e-05
 0.0244777 0.000109275
 0.0275001 0.000121865
 0.0308926 0.000135195
 0.0347005 0.000149172
 0.0389746 0.000164098
 0.0437719 0.00018036
 0.0491566 0.00019846
 0.0552005 0.000219339
 0.0619844 0.00024464
 0.0695988 0.000276943
 0.0781455 0.000319868
 0.0877386 0.000377903
 0.0985062 0.000455778
  0.110592 0.000557238
  0.124158 0.000683416
  0.139384 0.000831786
  0.156474 0.000995648
  0.175657 0.00116408
  0.197189 0.00132574
  0.221357 0.00147154
  0.248483 0.00158733
  0.278931 0.00164227
  0.314615 0.00160165
   0.35378 0.00144705
  0.392945 0.00125064
   0.43211  0.0010656
  0.471275 0.000920317
   0.51044 0.000823384
  0.549604 0.000768214
  0.588769 0.000761633
  0.627934 0.00080394
  0.667099 0.000869295
  0.706264 0.000933618
  0.745429 0.000991551
  0.784593 0.00103716
  0.823758 0.00105281
  0.862923 0.00103503
  0.902088 0.00100827
  0.941253 0.00100385
  0.980418 0.00104479
   1.01958 0.00114564
   1.05875 0.00130992
   1.09791 0.00151554
   1.13708   0.001725
   1.17624 0.00189654
   1.21541 0.00199814
   1.25457 0.00203763
   1.29374 0.00203177
    1.3329 0.00198825
   1.37207 0.00190726
   1.41123 0.00178664
    1.4504 0.00165624
   1.48956 0.00152033
   1.52873 0.00132876
   1.56789 0.00107632
   1.60706 0.000842037
   1.64622 0.00069221
   1.68539 0.000636012
   1.72107 0.000610349
   1.75152 0.000590452
   1.77865 0.000572714
   1.80281 0.000539935
   1.82434 0.000489934
   1.84353 0.000435975
   1.86062 0.000390016
   1.87584 0.000354555
   1.88941 0.000326352
    1.9015 0.000300982
   1.91226 0.000275692
   1.92186 0.000250001
    1.9304 0.000224803
   1.93802 0.000201197
    1.9448 0.000179858
   1.95084 0.000160967
   1.95623 0.000144376
   1.96103 0.000129795
    1.9653 0.000116931
   1.96911 0.000105513
    1.9725 9.51842e-05
   1.97552 8.56585e-05
   1.97822 7.68808e-05
   1.98061 6.8851e-05
   1.98275 6.15487e-05
   1.98466 5.49401e-05
   1.98635 4.89831e-05
   1.98786 4.36302e-05
   1.98921 3.8832e-05
   1.99041 3.4539e-05
   1.99148 3.07034e-05
   1.99243 2.72797e-05
   1.99333 2.40628e-05
   1.99421 2.08565e-05
    1.9951 1.76485e-05
     1.996 1.44397e-05
   1.99689 1.12306e-05
   1.99777 8.02157e-06
   1.99867 4.81276e-06
   1.99956 1.6042e-06
         2          0
