         0          0
  0.000445 1.94316e-10
  0.001335 5.86616e-10
  0.002225 9.55774e-10
  0.003115 1.26064e-09
  0.004005 1.51824e-09
  0.004895 1.70319e-09
  0.005785 1.8033e-09
  0.006675 2.15737e-09
0.00756867 3.71019e-09
0.00852095 6.86313e-09
0.00958982 1.14719e-08
 0.0107896 1.80425e-08
 0.0121362 2.74449e-08
 0.0136477 4.14906e-08
 0.0153442 6.47249e-08
 0.0172484 9.47819e-08
 0.0193858 6.71739e-08
 0.0217849 -1.99159e-07
 0.0244777 -4.33579e-07
 0.0275001 3.00697e-07
 0.0308926 1.01776e-06
 0.0347005 3.23428e-07
 0.0389746 -2.85729e-07
 0.0437719 -1.5771e-07
 0.0491566 -7.26247e-08
 0.0552005 -3.14895e-07
 0.0619844 -8.40933e-07
 0.0695988 -1.70968e-06
 0.0781455 -3.10004e-06
 0.0877386 -5.21553e-06
 0.0985062 -8.14554e-06
  0.110592 -1.17189e-05
  0.124158 -1.54546e-05
  0.139384 -1.87179e-05
  0.156474 -2.11813e-05
  0.175657 -2.25362e-05
  0.197189 -2.29968e-05
  0.221357 -1.76256e-05
  0.248483 -1.82762e-05
  0.278931 -4.60091e-06
  0.314615 8.3156e-06
   0.35378 -6.3677e-06
  0.392945 1.0802e-05
   0.43211 -1.61377e-06
  0.471275 2.13822e-06
   0.51044 -1.98307e-06
  0.549604 -3.91644e-07
  0.588769 -9.55939e-07
  0.627934 -1.157e-06
  0.667099 -2.45502e-06
  0.706264 -3.42662e-06
  0.745429 -3.31411e-06
  0.784593 -2.22737e-06
  0.823758 -1.71412e-06
  0.862923 -9.2828e-07
  0.902088 -9.01353e-07
  0.941253 -6.65987e-07
  0.980418 -2.85757e-07
   1.01958 2.85725e-07
   1.05875 6.13221e-07
   1.09791 9.84511e-07
   1.13708 2.23289e-06
   1.17624 2.73288e-06
   1.21541 2.72616e-06
   1.25457 2.32841e-06
   1.29374 2.20312e-06
    1.3329 1.82232e-06
   1.37207 1.75395e-07
   1.41123 2.79519e-06
    1.4504 2.29399e-06
   1.48956 1.00914e-06
   1.52873 -4.67049e-06
   1.56789 1.42498e-06
   1.60706 -1.03881e-05
   1.64622 6.92375e-06
   1.68539 -8.47801e-06
   1.72107 3.46131e-06
   1.75152 1.90665e-05
   1.77865 1.63742e-05
   1.80281 2.2112e-05
   1.82434 2.33209e-05
   1.84353 2.30592e-05
   1.86062 2.05092e-05
   1.87584 1.65902e-05
   1.88941 1.22624e-05
    1.9015 8.36271e-06
   1.91226 5.29725e-06
   1.92186 3.1328e-06
    1.9304 1.71875e-06
   1.93802 8.38462e-07
    1.9448 3.10677e-07
   1.95084 6.87912e-08
   1.95623 1.5858e-07
   1.96103 2.97584e-07
    1.9653 -3.13849e-07
   1.96911 -1.05853e-06
    1.9725 -3.26024e-07
   1.97552 4.53247e-07
   1.97822 2.10611e-07
   1.98061 -6.90059e-08
   1.98275 -9.83496e-08
   1.98466 -6.71622e-08
   1.98635 -4.30253e-08
   1.98786 -2.84591e-08
   1.98921 -1.87146e-08
   1.99041 -1.19024e-08
   1.99148 -7.12185e-09
   1.99243 -3.85033e-09
   1.99333 -2.23902e-09
   1.99421 -1.87187e-09
    1.9951 -1.7683e-09
     1.996 -1.57654e-09
   1.99689 -1.30928e-09
   1.99777 -9.92826e-10
   1.99867 -6.09462e-10
   1.99956 -2.01863e-10
         2          0
