         0          0
  0.000445 1.11007e-12
  0.001335 2.03079e-11
  0.002225 8.38756e-11
  0.003115 2.15379e-10
  0.004005 4.28306e-10
  0.004895 7.23798e-10
  0.005785 1.09244e-09
  0.006675 1.51331e-09
0.00756867 1.9573e-09
0.00852095 2.41323e-09
0.00958982 2.82778e-09
 0.0107896 3.06031e-09
 0.0121362 2.86215e-09
 0.0136477 1.83039e-09
 0.0153442 -6.42043e-10
 0.0172484 -5.39998e-09
 0.0193858 -1.34838e-08
 0.0217849 -2.58835e-08
 0.0244777 -4.3444e-08
 0.0275001 -6.58446e-08
 0.0308926 -9.11935e-08
 0.0347005 -1.17038e-07
 0.0389746 -1.36529e-07
 0.0437719 -1.36276e-07
 0.0491566 -9.81012e-08
 0.0552005 7.09369e-10
 0.0619844 1.83212e-07
 0.0695988 4.64588e-07
 0.0781455 8.42777e-07
 0.0877386 1.2916e-06
 0.0985062 1.75671e-06
  0.110592 2.15711e-06
  0.124158 2.39953e-06
  0.139384 2.42518e-06
  0.156474 2.2231e-06
  0.175657 1.84755e-06
  0.197189 1.3862e-06
  0.221357 7.81585e-07
  0.248483 -2.02599e-07
  0.278931 -1.12364e-06
  0.314615 -2.16154e-06
   0.35378 -2.7182e-06
  0.392945 -2.39889e-06
   0.43211 -1.72021e-06
  0.471275 -1.07457e-06
   0.51044 -2.85711e-07
  0.549604 5.67107e-07
  0.588769 1.43539e-06
  0.627934 2.16215e-06
  0.667099 2.40214e-06
  0.706264 2.40664e-06
  0.745429 2.24533e-06
  0.784593 1.80897e-06
  0.823758 1.07031e-06
  0.862923 5.91458e-07
  0.902088 5.42143e-07
  0.941253 8.88149e-07
  0.980418 1.56218e-06
   1.01958 2.37795e-06
   1.05875 3.1096e-06
   1.09791 3.4954e-06
   1.13708 3.44453e-06
   1.17624 2.92186e-06
   1.21541 2.43195e-06
   1.25457 2.13964e-06
   1.29374 1.77141e-06
    1.3329 1.49236e-06
   1.37207 1.09393e-06
   1.41123 8.38369e-07
    1.4504 7.87108e-07
   1.48956 1.40933e-07
   1.52873 -1.05808e-06
   1.56789 -1.33233e-06
   1.60706 -8.28654e-07
   1.64622 6.90203e-08
   1.68539 8.95762e-07
   1.72107 8.11233e-07
   1.75152 1.21601e-06
   1.77865 1.30497e-06
   1.80281 1.29847e-06
   1.82434 1.24393e-06
   1.84353 1.29808e-06
   1.86062 1.41621e-06
   1.87584 1.45852e-06
   1.88941 1.34348e-06
    1.9015 1.08169e-06
   1.91226 7.58627e-07
   1.92186 4.66547e-07
    1.9304 2.56676e-07
   1.93802 1.34201e-07
    1.9448 7.79133e-08
   1.95084 6.06074e-08
   1.95623 6.0315e-08
   1.96103 6.34067e-08
    1.9653 6.33883e-08
   1.96911 5.91637e-08
    1.9725 5.20472e-08
   1.97552 4.3879e-08
   1.97822 3.5634e-08
   1.98061 2.7973e-08
   1.98275 2.14238e-08
   1.98466 1.61272e-08
   1.98635 1.19504e-08
   1.98786 8.73879e-09
   1.98921 6.32518e-09
   1.99041 4.54305e-09
   1.99148 3.24491e-09
   1.99243 2.30727e-09
   1.99333 1.59991e-09
   1.99421 1.0507e-09
    1.9951 6.41245e-10
     1.996 3.52597e-10
   1.99689 1.65118e-10
   1.99777 5.8286e-11
   1.99867 1.10941e-11
   1.99956 -8.35156e-14
         2          0
