         0          0
  0.000445 5.24548e-07
  0.001335 4.52911e-06
  0.002225 1.21754e-05
  0.003115 2.31298e-05
  0.004005 3.70847e-05
  0.004895 5.37564e-05
  0.005785 7.28819e-05
  0.006675 9.42171e-05
0.00756867 0.000117636
0.00852095 0.000144576
0.00958982 0.000176937
 0.0107896 0.000215557
 0.0121362 0.000261307
 0.0136477 0.000315045
 0.0153442 0.000377556
 0.0172484 0.000449454
 0.0193858 0.000531077
 0.0217849 0.000622358
 0.0244777 0.000722701
 0.0275001 0.000831117
 0.0308926 0.000947211
 0.0347005 0.00107187
 0.0389746 0.00120637
 0.0437719 0.00135154
 0.0491566 0.00150791
 0.0552005 0.00167602
 0.0619844  0.0018561
 0.0695988 0.00204766
 0.0781455 0.00224883
 0.0877386  0.0024558
 0.0985062 0.00266272
  0.110592 0.00286244
  0.124158 0.00304799
  0.139384 0.00321441
  0.156474  0.0033597
  0.175657 0.00348425
  0.197189 0.00358898
  0.221357 0.00367462
  0.248483 0.00374175
  0.278931 0.00378606
  0.314615 0.00380296
   0.35378 0.00372156
  0.392945 0.00359291
   0.43211 0.00343503
  0.471275 0.00325737
   0.51044 0.00307256
  0.549604 0.00288703
  0.588769 0.00270905
  0.627934 0.00253946
  0.667099 0.00237512
  0.706264 0.00221603
  0.745429 0.00206627
  0.784593 0.00193162
  0.823758 0.00181654
  0.862923 0.00172418
  0.902088 0.00165596
  0.941253 0.00161251
  0.980418 0.00159573
   1.01958 0.00160448
   1.05875 0.00163586
   1.09791 0.00168762
   1.13708 0.00175863
   1.17624 0.00185165
   1.21541  0.0019677
   1.25457 0.00210418
   1.29374 0.00226036
    1.3329 0.00243396
   1.37207 0.00261942
   1.41123 0.00281253
    1.4504 0.00300954
   1.48956 0.00320219
   1.52873 0.00338425
   1.56789 0.00354841
   1.60706 0.00369319
   1.64622 0.00381933
   1.68539 0.00391783
   1.72107  0.0039283
   1.75152 0.00389314
   1.77865  0.0038169
   1.80281 0.00371694
   1.82434 0.00360204
   1.84353   0.003471
   1.86062 0.00331972
   1.87584 0.00314672
   1.88941 0.00295425
    1.9015 0.00274747
   1.91226 0.00253337
   1.92186 0.00231921
    1.9304 0.00211108
   1.93802 0.00191301
    1.9448 0.00172703
   1.95084 0.00155366
   1.95623 0.00139257
   1.96103 0.00124314
    1.9653 0.00110473
   1.96911 0.000976455
    1.9725 0.000856993
   1.97552 0.00074539
   1.97822 0.000642038
   1.98061 0.000547974
   1.98275 0.00046383
   1.98466 0.000389687
   1.98635 0.000325209
   1.98786 0.000269767
   1.98921 0.000222559
   1.99041 0.000182702
   1.99148 0.000149299
   1.99243 0.000121489
   1.99333 9.73105e-05
   1.99421 7.52806e-05
    1.9951 5.55301e-05
     1.996 3.83116e-05
   1.99689 2.38971e-05
   1.99777 1.25805e-05
   1.99867 4.68029e-06
   1.99956 5.42132e-07
         2          0
