         0          0
  0.000445 -5.83698e-09
  0.001335 -5.159e-08
  0.002225 -1.41346e-07
  0.003115 -2.73555e-07
  0.004005 -4.4686e-07
  0.004895 -6.60079e-07
  0.005785 -9.12182e-07
  0.006675 -1.20226e-06
0.00756867 -1.53093e-06
0.00852095 -1.92157e-06
0.00958982 -2.40847e-06
 0.0107896 -3.01422e-06
 0.0121362 -3.76582e-06
 0.0136477 -4.69459e-06
 0.0153442 -5.83509e-06
 0.0172484 -7.22233e-06
 0.0193858 -8.88668e-06
 0.0217849 -1.08464e-05
 0.0244777 -1.30964e-05
 0.0275001 -1.56459e-05
 0.0308926 -1.85965e-05
 0.0347005 -2.20317e-05
 0.0389746 -2.5898e-05
 0.0437719 -3.00794e-05
 0.0491566 -3.4347e-05
 0.0552005 -3.82873e-05
 0.0619844 -4.12522e-05
 0.0695988 -4.23647e-05
 0.0781455 -4.0667e-05
 0.0877386 -3.54887e-05
 0.0985062 -2.69776e-05
  0.110592 -1.64392e-05
  0.124158 -5.99671e-06
  0.139384 2.35387e-06
  0.156474 7.66203e-06
  0.175657 1.11662e-05
  0.197189 1.55179e-05
  0.221357 2.02784e-05
  0.248483 2.19004e-05
  0.278931 2.20342e-05
  0.314615 2.48037e-05
   0.35378 3.10005e-05
  0.392945 3.55349e-05
   0.43211 3.30451e-05
  0.471275 2.38044e-05
   0.51044 1.20243e-05
  0.549604 4.26112e-06
  0.588769 -2.0173e-06
  0.627934 -9.25704e-06
  0.667099 -1.20168e-05
  0.706264 -7.75481e-06
  0.745429 -1.94279e-06
  0.784593 3.24207e-06
  0.823758 1.01383e-05
  0.862923 1.77096e-05
  0.902088 2.24755e-05
  0.941253 2.23022e-05
  0.980418 1.9604e-05
   1.01958 1.61342e-05
   1.05875 1.01265e-05
   1.09791 1.25073e-06
   1.13708 -7.78891e-06
   1.17624 -1.47863e-05
   1.21541 -1.70577e-05
   1.25457 -1.4102e-05
   1.29374 -8.5607e-06
    1.3329 -3.21317e-06
   1.37207 1.61312e-06
   1.41123 7.34296e-06
    1.4504 1.21016e-05
   1.48956 1.21003e-05
   1.52873 9.19624e-06
   1.56789 1.07285e-05
   1.60706 2.15187e-05
   1.64622 3.33077e-05
   1.68539 3.66655e-05
   1.72107 2.35752e-05
   1.75152 5.73203e-06
   1.77865 -7.6897e-06
   1.80281 -1.2162e-05
   1.82434 -3.49838e-06
   1.84353 1.45244e-05
   1.86062 3.21393e-05
   1.87584 4.26208e-05
   1.88941 4.49895e-05
    1.9015 4.18409e-05
   1.91226 3.63596e-05
   1.92186 3.07806e-05
    1.9304 2.62021e-05
   1.93802 2.28874e-05
    1.9448 2.06307e-05
   1.95084 1.90556e-05
   1.95623 1.78046e-05
   1.96103 1.66269e-05
    1.9653 1.53975e-05
   1.96911 1.40977e-05
    1.9725 1.27247e-05
   1.97552 1.13041e-05
   1.97822 9.88455e-06
   1.98061 8.50565e-06
   1.98275 7.21113e-06
   1.98466 6.03525e-06
   1.98635 4.99635e-06
   1.98786 4.09918e-06
   1.98921 3.33851e-06
   1.99041 2.70281e-06
   1.99148 2.17752e-06
   1.99243 1.74723e-06
   1.99333 1.37958e-06
   1.99421 1.05107e-06
    1.9951 7.62836e-07
     1.996 5.17376e-07
   1.99689 3.16978e-07
   1.99777 1.63759e-07
   1.99867 5.97089e-08
   1.99956 6.73962e-09
         2          0
