         0          0
  0.000445 2.90812e-06
  0.001335 2.6147e-05
  0.002225 7.2581e-05
  0.003115 0.000142171
  0.004005 0.000234871
  0.004895 0.000350611
  0.005785 0.000489282
  0.006675 0.00065072
0.00756867 0.000835492
0.00852095 0.00105703
0.00958982 0.00133528
 0.0107896 0.00168366
 0.0121362 0.00211783
 0.0136477 0.00265538
 0.0153442 0.00331477
 0.0172484 0.00411322
 0.0193858 0.00506327
 0.0217849 0.00616803
 0.0244777 0.00741613
 0.0275001 0.00879467
 0.0308926  0.0103394
 0.0347005  0.0121107
 0.0389746  0.0141037
 0.0437719   0.016264
 0.0491566  0.0185231
 0.0552005  0.0207887
 0.0619844  0.0229432
 0.0695988  0.0248528
 0.0781455  0.0263829
 0.0877386  0.0274159
 0.0985062  0.0278707
  0.110592  0.0277172
  0.124158  0.0269816
  0.139384  0.0257395
  0.156474  0.0240993
  0.175657  0.0221849
  0.197189  0.0201215
  0.221357  0.0180243
  0.248483  0.0159913
  0.278931  0.0141012
  0.314615  0.0123682
   0.35378  0.0108485
  0.392945 0.00963068
   0.43211 0.00862656
  0.471275 0.00777854
   0.51044 0.00704508
  0.549604 0.00639607
  0.588769 0.00581388
  0.627934 0.00528836
  0.667099 0.00481261
  0.706264 0.00438081
  0.745429 0.00398868
  0.784593 0.00363741
  0.823758 0.00333307
  0.862923  0.0030803
  0.902088   0.002886
  0.941253  0.0027598
  0.980418 0.00270889
   1.01958 0.00273372
   1.05875 0.00282989
   1.09791 0.00299137
   1.13708 0.00321269
   1.17624 0.00348793
   1.21541    0.00381
   1.25457 0.00417431
   1.29374 0.00457662
    1.3329 0.00501107
   1.37207 0.00547849
   1.41123 0.00598747
    1.4504 0.00655036
   1.48956 0.00717836
   1.52873  0.0078816
   1.56789  0.0086817
   1.60706  0.0096183
   1.64622  0.0107701
   1.68539  0.0122305
   1.72107  0.0139106
   1.75152  0.0157549
   1.77865   0.017753
   1.80281  0.0198541
   1.82434  0.0219844
   1.84353   0.024032
   1.86062   0.025848
   1.87584  0.0272745
   1.88941  0.0281746
    1.9015  0.0284563
   1.91226   0.028087
   1.92186  0.0270966
    1.9304  0.0255708
   1.93802  0.0236345
    1.9448  0.0214315
   1.95084  0.0191046
   1.95623  0.0167788
   1.96103   0.014552
    1.9653  0.0124964
   1.96911  0.0106687
    1.9725  0.0090758
   1.97552 0.00765531
   1.97822 0.00636861
   1.98061 0.00522889
   1.98275 0.00424831
   1.98466 0.00342394
   1.98635   0.002743
   1.98786  0.0021878
   1.98921 0.00173933
   1.99041 0.00137946
   1.99148 0.00109201
   1.99243 0.000863157
   1.99333 0.000672272
   1.99421 0.000505489
    1.9951 0.000362226
     1.996 0.000242653
   1.99689 0.000146882
   1.99777 7.49862e-05
   1.99867 2.70135e-05
   1.99956 3.00452e-06
         2          0
