         0          0
  0.000445 1.48086e-12
  0.001335 2.51259e-10
  0.002225 1.96802e-09
  0.003115 7.52266e-09
  0.004005 2.01299e-08
  0.004895 4.36712e-08
  0.005785 8.25877e-08
  0.006675 1.41751e-07
0.00756867 2.26733e-07
0.00852095 3.51317e-07
0.00958982 5.41449e-07
 0.0107896 8.29763e-07
 0.0121362 1.26392e-06
 0.0136477 1.91277e-06
 0.0153442 2.8745e-06
 0.0172484 4.28729e-06
 0.0193858 6.34326e-06
 0.0217849 9.30545e-06
 0.0244777 1.35196e-05
 0.0275001 1.94322e-05
 0.0308926 2.76321e-05
 0.0347005 3.88861e-05
 0.0389746 5.41661e-05
 0.0437719 7.46629e-05
 0.0491566 0.000101812
 0.0552005 0.000137351
 0.0619844 0.000183319
 0.0695988 0.000242039
 0.0781455 0.000316059
 0.0877386 0.000408012
 0.0985062 0.000520348
  0.110592 0.000654913
  0.124158 0.000812395
  0.139384 0.000991764
  0.156474 0.00118984
  0.175657 0.00140104
  0.197189 0.00161709
  0.221357 0.00182673
  0.248483 0.00201654
  0.278931 0.00217401
  0.314615 0.00228821
   0.35378 0.00233425
  0.392945 0.00232747
   0.43211 0.00228928
  0.471275 0.00223137
   0.51044 0.00216207
  0.549604 0.00208607
  0.588769 0.00200747
  0.627934 0.00192998
  0.667099  0.0018568
  0.706264 0.00179001
  0.745429 0.00173026
  0.784593 0.00167721
  0.823758 0.00163105
  0.862923 0.00159264
  0.902088 0.00156308
  0.941253 0.00154311
  0.980418 0.00153299
   1.01958 0.00153278
   1.05875 0.00154223
   1.09791 0.00156122
   1.13708 0.00158922
   1.17624 0.00162636
   1.21541  0.0016732
   1.25457 0.00172988
   1.29374  0.0017958
    1.3329 0.00187021
   1.37207 0.00195098
   1.41123 0.00203474
    1.4504 0.00211799
   1.48956 0.00220007
   1.52873 0.00227731
   1.56789 0.00234279
   1.60706  0.0023858
   1.64622 0.00239604
   1.68539 0.00235317
   1.72107  0.0022419
   1.75152 0.00208467
   1.77865 0.00189326
   1.80281 0.00167993
   1.82434 0.00145774
   1.84353 0.00123843
   1.86062 0.00103163
   1.87584 0.000844152
   1.88941 0.000679785
    1.9015 0.000539637
   1.91226 0.000422866
   1.92186 0.000327424
    1.9304 0.000250678
   1.93802 0.00018984
    1.9448 0.000142237
   1.95084 0.000105443
   1.95623 7.73357e-05
   1.96103 5.61145e-05
    1.9653 4.02918e-05
   1.96911 2.86364e-05
    1.9725 2.01428e-05
   1.97552 1.40168e-05
   1.97822 9.64949e-06
   1.98061 6.57907e-06
   1.98275 4.44747e-06
   1.98466 2.9824e-06
   1.98635 1.98489e-06
   1.98786 1.31176e-06
   1.98921 8.61284e-07
   1.99041 5.62087e-07
   1.99148 3.64749e-07
   1.99243 2.35427e-07
   1.99333 1.47201e-07
   1.99421 8.57713e-08
    1.9951 4.53591e-08
     1.996 2.09101e-08
   1.99689 7.81508e-09
   1.99777 2.04478e-09
   1.99867 2.61103e-10
   1.99956 1.53996e-12
         2          0
