         0 6.14531e-19
  0.000445 -1.23935e-18
  0.001335 -2.2719e-18
  0.002225 -1.09441e-17
  0.003115 4.40448e-17
  0.004005 1.27631e-17
  0.004895 -1.67492e-17
  0.005785 -7.9358e-18
  0.006675 5.8321e-17
0.00756867 -4.59717e-17
0.00852095 -2.9545e-17
0.00958982 -3.34424e-17
 0.0107896 -9.99387e-17
 0.0121362 8.41482e-17
 0.0136477 4.35921e-17
 0.0153442 -9.84568e-17
 0.0172484 5.36099e-17
 0.0193858 -9.446e-17
 0.0217849 -7.39819e-17
 0.0244777 2.11682e-16
 0.0275001 7.79921e-17
 0.0308926 -2.13385e-18
 0.0347005 2.03957e-16
 0.0389746 1.39073e-16
 0.0437719 -1.416e-16
 0.0491566 -6.63158e-17
 0.0552005 1.00271e-16
 0.0619844 1.81322e-16
 0.0695988 -1.66027e-16
 0.0781455 -2.15739e-16
 0.0877386 9.10161e-17
 0.0985062 -4.18245e-16
  0.110592 4.92539e-17
  0.124158 -1.3174e-16
  0.139384 5.42455e-18
  0.156474 -8.28826e-17
  0.175657 7.6994e-17
  0.197189 9.78473e-17
  0.221357 -1.62031e-16
  0.248483 -1.95845e-16
  0.278931 2.00362e-17
  0.314615 -1.95584e-16
   0.35378 9.08856e-18
  0.392945 -1.33815e-16
   0.43211 -2.2757e-16
  0.471275 5.56405e-17
   0.51044 -1.79691e-16
  0.549604 1.34384e-17
  0.588769 -9.05939e-17
  0.627934 -3.48688e-17
  0.667099 4.52322e-17
  0.706264 6.64135e-18
  0.745429 -8.96855e-17
  0.784593 -7.53159e-17
  0.823758 3.44391e-18
  0.862923 -9.69314e-17
  0.902088 -1.94045e-17
  0.941253 -1.97375e-17
  0.980418 -5.21161e-17
   1.01958 -9.64739e-17
   1.05875 3.69482e-18
   1.09791 3.85469e-17
   1.13708 8.41727e-17
   1.17624 -5.3122e-17
   1.21541 -8.12506e-17
   1.25457 -1.27531e-16
   1.29374 -7.92144e-17
    1.3329 2.16405e-17
   1.37207 -1.38913e-16
   1.41123 5.17542e-17
    1.4504 9.4672e-17
   1.48956 -2.24929e-16
   1.52873 -1.56823e-16
   1.56789 -4.42535e-18
   1.60706 2.11288e-16
   1.64622 -2.68563e-17
   1.68539 -1.97353e-17
   1.72107 -9.13963e-18
   1.75152 4.71345e-17
   1.77865 -1.73939e-16
   1.80281 4.18932e-17
   1.82434 -2.75473e-16
   1.84353 -7.20135e-17
   1.86062 -2.81863e-16
   1.87584 1.89538e-16
   1.88941 4.33309e-17
    1.9015 -3.41751e-16
   1.91226 -3.81984e-16
   1.92186 -6.83853e-17
    1.9304 -7.76582e-17
   1.93802 -1.28848e-16
    1.9448 5.28207e-17
   1.95084 3.1897e-17
   1.95623 -8.60609e-17
   1.96103 -4.22009e-16
    1.9653 3.87621e-16
   1.96911 1.57654e-17
    1.9725 -1.33972e-16
   1.97552 7.03319e-17
   1.97822 3.68931e-17
   1.98061 -3.11841e-17
   1.98275 -3.1334e-18
   1.98466 -2.10276e-16
   1.98635 -3.98144e-16
   1.98786 7.31708e-17
   1.98921 -3.22024e-16
   1.99041 3.42128e-16
   1.99148 -4.1766e-16
   1.99243 4.74627e-16
   1.99333 -1.53073e-16
   1.99421 1.44461e-16
    1.9951 -2.19877e-16
     1.996 -6.98062e-17
   1.99689 1.76441e-17
   1.99777 -6.18608e-17
   1.99867  -1.41e-16
   1.99956 -8.18698e-17
         2 -7.8407e-17
