         0  0.0294758
  0.000445  0.0290757
  0.001335  0.0283354
  0.002225  0.0276713
  0.003115  0.0270751
  0.004005  0.0265363
  0.004895  0.0260422
  0.005785  0.0255782
  0.006675  0.0251287
0.00756867  0.0246757
0.00852095  0.0241727
0.00958982  0.0235596
 0.0107896  0.0227813
 0.0121362  0.0217625
 0.0136477  0.0204093
 0.0153442  0.0186208
 0.0172484  0.0163123
 0.0193858  0.0134534
 0.0217849  0.0100991
 0.0244777 0.00658882
 0.0275001 0.00356097
 0.0308926 0.00107221
 0.0347005 -0.00152021
 0.0389746 -0.0043756
 0.0437719 -0.00709738
 0.0491566 -0.00934455
 0.0552005 -0.0107935
 0.0619844 -0.0110543
 0.0695988 -0.00972572
 0.0781455 -0.00654619
 0.0877386 -0.00169305
 0.0985062 0.00387112
  0.110592 0.00855318
  0.124158   0.011216
  0.139384   0.011724
  0.156474   0.010075
  0.175657 0.00733273
  0.197189 0.00522137
  0.221357 0.00385085
  0.248483 0.00261262
  0.278931 0.00183322
  0.314615 0.00103899
   0.35378 -0.000314238
  0.392945 -0.00159336
   0.43211 -0.00235649
  0.471275 -0.00243163
   0.51044 -0.00211414
  0.549604 -0.00151823
  0.588769 -0.0011642
  0.627934  -0.001355
  0.667099 -0.00138776
  0.706264 -0.000871257
  0.745429 -0.000577834
  0.784593 -0.000757602
  0.823758 -0.000775755
  0.862923 -0.000737393
  0.902088 -0.00080071
  0.941253  -0.001119
  0.980418 -0.00107843
   1.01958 -0.000404611
   1.05875 0.00027956
   1.09791 0.000365425
   1.13708 0.000205902
   1.17624 -7.15634e-05
   1.21541 -0.000179839
   1.25457 8.11781e-05
   1.29374 0.000301479
    1.3329 -1.00012e-05
   1.37207 -0.000594469
   1.41123 -0.000737568
    1.4504 -0.000739424
   1.48956 -0.00148953
   1.52873 -0.00230687
   1.56789 -0.00232476
   1.60706 -0.00115309
   1.64622 -0.000102157
   1.68539 0.000324934
   1.72107 -0.00135858
   1.75152 -0.00349687
   1.77865 -0.00574096
   1.80281 -0.00982756
   1.82434 -0.0133255
   1.84353 -0.0136059
   1.86062 -0.0124052
   1.87584 -0.0121288
   1.88941 -0.0136916
    1.9015 -0.0160927
   1.91226 -0.0180507
   1.92186 -0.0190412
    1.9304 -0.0189969
   1.93802 -0.0179846
    1.9448 -0.0161941
   1.95084 -0.0139415
   1.95623 -0.0116068
   1.96103 -0.00954595
    1.9653 -0.00804252
   1.96911 -0.00733866
    1.9725 -0.00756958
   1.97552 -0.00852648
   1.97822 -0.00995159
   1.98061 -0.0117661
   1.98275 -0.0138556
   1.98466 -0.0160666
   1.98635 -0.0182548
   1.98786  -0.020308
   1.98921 -0.0221597
   1.99041  -0.023784
   1.99148 -0.0251843
   1.99243 -0.0263798
   1.99333 -0.0274478
   1.99421 -0.0284584
    1.9951 -0.0294166
     1.996 -0.0303259
   1.99689 -0.0311925
   1.99777  -0.032025
   1.99867 -0.0328349
   1.99956 -0.0336352
         2 -0.0340339
