         0 2.18711e-19
  0.000445 -4.12656e-19
  0.001335 -1.96607e-18
  0.002225 -1.08785e-18
  0.003115 -7.73992e-18
  0.004005 8.90121e-18
  0.004895 -6.77097e-19
  0.005785 -1.16977e-17
  0.006675 -1.21128e-17
0.00756867 4.12503e-18
0.00852095 5.20833e-18
0.00958982 -6.05072e-19
 0.0107896  -1.21e-17
 0.0121362 1.30088e-17
 0.0136477 -5.71404e-18
 0.0153442 5.27595e-17
 0.0172484 -7.72279e-17
 0.0193858 -3.35726e-17
 0.0217849 2.32941e-17
 0.0244777 -1.13692e-17
 0.0275001 -4.78545e-17
 0.0308926 1.39844e-17
 0.0347005 -3.04035e-18
 0.0389746 -6.02268e-17
 0.0437719 -5.8531e-18
 0.0491566 -1.26094e-17
 0.0552005 3.70193e-17
 0.0619844 -9.10244e-17
 0.0695988 -3.7696e-17
 0.0781455 7.31382e-17
 0.0877386 4.40203e-18
 0.0985062 -1.79784e-17
  0.110592 1.10713e-16
  0.124158 3.29203e-17
  0.139384 -2.49439e-17
  0.156474 -3.97066e-17
  0.175657 -1.10212e-17
  0.197189 -8.82122e-17
  0.221357 -3.18034e-17
  0.248483 3.92186e-17
  0.278931 -5.08166e-17
  0.314615 -2.26572e-17
   0.35378 -1.27884e-17
  0.392945 -1.67089e-17
   0.43211 -4.33237e-18
  0.471275 1.89598e-18
   0.51044 -1.72866e-17
  0.549604 3.03965e-17
  0.588769 -5.19178e-17
  0.627934 -1.42997e-17
  0.667099 1.08607e-17
  0.706264 9.12347e-18
  0.745429 -5.76865e-18
  0.784593 -3.5556e-17
  0.823758 5.23748e-19
  0.862923 8.55559e-18
  0.902088 1.04975e-17
  0.941253 -1.49925e-17
  0.980418 -1.06453e-17
   1.01958 -2.17222e-17
   1.05875 5.23966e-17
   1.09791 -2.52085e-17
   1.13708 3.03431e-17
   1.17624 -1.59153e-17
   1.21541 1.35442e-17
   1.25457 -2.01151e-17
   1.29374 -5.58092e-18
    1.3329 -1.58869e-17
   1.37207 -3.95311e-17
   1.41123 -2.17472e-18
    1.4504 1.71776e-17
   1.48956 2.07544e-17
   1.52873 -3.36214e-17
   1.56789 1.26427e-18
   1.60706 8.18942e-17
   1.64622 -3.13324e-17
   1.68539 1.64549e-17
   1.72107 -1.05743e-17
   1.75152 1.16485e-17
   1.77865 -2.48135e-19
   1.80281 7.28634e-17
   1.82434 -4.24361e-17
   1.84353 -5.34167e-17
   1.86062 -1.04305e-17
   1.87584 1.89304e-17
   1.88941 2.09444e-17
    1.9015 8.53928e-18
   1.91226 -8.39523e-17
   1.92186 -1.98336e-17
    1.9304 -1.21847e-18
   1.93802 4.12154e-17
    1.9448 -5.36315e-17
   1.95084 -5.43565e-18
   1.95623 -3.30658e-17
   1.96103 -2.52492e-18
    1.9653 1.61332e-17
   1.96911 3.05939e-17
    1.9725 1.87192e-17
   1.97552 -1.02784e-17
   1.97822 -3.78092e-17
   1.98061 1.87875e-17
   1.98275 -1.43538e-18
   1.98466 -2.89199e-17
   1.98635 -4.43161e-17
   1.98786 -5.85224e-17
   1.98921 1.06658e-17
   1.99041 -1.86323e-17
   1.99148 1.84686e-18
   1.99243 1.83277e-17
   1.99333 2.01868e-17
   1.99421 2.77681e-17
    1.9951 1.38423e-17
     1.996 -4.65294e-17
   1.99689 4.35242e-18
   1.99777 2.96946e-17
   1.99867 1.54687e-17
   1.99956 -4.4987e-19
         2 -4.99776e-19
