         0    14.6856
  0.000445    14.6744
  0.001335     14.656
  0.002225    14.6414
  0.003115    14.6275
  0.004005    14.6112
  0.004895    14.5888
  0.005785    14.5566
  0.006675    14.5107
0.00756867    14.4466
0.00852095    14.3525
0.00958982    14.2106
 0.0107896    13.9989
 0.0121362    13.6882
 0.0136477    13.2427
 0.0153442    12.6233
 0.0172484     11.796
 0.0193858    10.7452
 0.0217849    9.48968
 0.0244777    8.15586
 0.0275001    7.07119
 0.0308926    6.44684
 0.0347005    6.07936
 0.0389746    5.71288
 0.0437719    5.33537
 0.0491566    5.00955
 0.0552005     4.7572
 0.0619844     4.5756
 0.0695988    4.44612
 0.0781455    4.33917
 0.0877386    4.22256
 0.0985062     4.0693
  0.110592    3.86264
  0.124158    3.59825
  0.139384    3.28386
  0.156474    2.93681
  0.175657    2.57815
  0.197189     2.2252
  0.221357     1.8894
  0.248483    1.58297
  0.278931    1.29602
  0.314615    1.02548
   0.35378    0.84766
  0.392945   0.723748
   0.43211   0.626577
  0.471275   0.550196
   0.51044   0.487738
  0.549604   0.435618
  0.588769   0.392467
  0.627934    0.35632
  0.667099   0.326653
  0.706264   0.303019
  0.745429   0.283783
  0.784593   0.268153
  0.823758   0.255261
  0.862923   0.245121
  0.902088   0.237924
  0.941253   0.233382
  0.980418   0.230981
   1.01958   0.230347
   1.05875   0.231836
   1.09791   0.235802
   1.13708   0.241966
   1.17624    0.25078
   1.21541   0.263557
   1.25457    0.28116
   1.29374   0.303189
    1.3329   0.328604
   1.37207   0.358098
   1.41123   0.393473
    1.4504   0.435301
   1.48956   0.485243
   1.52873    0.54732
   1.56789   0.625872
   1.60706   0.726833
   1.64622   0.852515
   1.68539    1.03128
   1.72107    1.30046
   1.75152    1.58425
   1.77865    1.89154
   1.80281    2.23265
   1.82434    2.58946
   1.84353    2.94317
   1.86062    3.27716
   1.87584    3.57785
   1.88941    3.83395
    1.9015    4.03861
   1.91226    4.19505
   1.92186    4.31964
    1.9304    4.44009
   1.93802    4.58949
    1.9448    4.79703
   1.95084     5.0794
   1.95623    5.43675
   1.96103    5.84516
    1.9653    6.23904
   1.96911    6.62413
    1.9725    7.26361
   1.97552    8.38221
   1.97822     9.7679
   1.98061    11.0748
   1.98275    12.1683
   1.98466    13.0291
   1.98635    13.6733
   1.98786    14.1364
   1.98921    14.4593
   1.99041    14.6792
   1.99148    14.8265
   1.99243    14.9242
   1.99333    14.9909
   1.99421    15.0385
    1.9951    15.0719
     1.996    15.0951
   1.99689    15.1121
   1.99777    15.1264
   1.99867    15.1416
   1.99956    15.1608
         2    15.1724
