         0 5.94758e-06
  0.000445 5.08636e-06
  0.001335 1.01154e-05
  0.002225 8.24921e-06
  0.003115 -2.78378e-07
  0.004005 -1.49804e-05
  0.004895 -3.51608e-05
  0.005785 -5.99648e-05
  0.006675 -8.83893e-05
0.00756867 -0.000119467
0.00852095 -0.000154005
0.00958982 -0.000192632
 0.0107896 -0.000233023
 0.0121362 -0.000270506
 0.0136477 -0.000296845
 0.0153442 -0.000298744
 0.0172484 -0.00025661
 0.0193858 -0.000144221
 0.0217849 7.01557e-05
 0.0244777 0.000408697
 0.0275001 0.000835015
 0.0308926 0.00131585
 0.0347005 0.00198139
 0.0389746 0.00303222
 0.0437719 0.00456909
 0.0491566 0.00662302
 0.0552005 0.00919207
 0.0619844  0.0122011
 0.0695988  0.0154581
 0.0781455  0.0186508
 0.0877386  0.0213831
 0.0985062  0.0232679
  0.110592  0.0240713
  0.124158   0.023858
  0.139384    0.02294
  0.156474  0.0215952
  0.175657  0.0198121
  0.197189  0.0175182
  0.221357  0.0149674
  0.248483  0.0121852
  0.278931 0.00871621
  0.314615 0.00503312
   0.35378 0.00212913
  0.392945 -5.88998e-06
   0.43211 -0.00155446
  0.471275 -0.0022307
   0.51044 -0.0019426
  0.549604 -0.000877609
  0.588769 0.000115912
  0.627934 0.000689896
  0.667099 0.00121009
  0.706264 0.00160002
  0.745429 0.00161263
  0.784593 0.00128475
  0.823758 0.000886644
  0.862923 0.000643526
  0.902088 0.000628569
  0.941253 0.000778284
  0.980418 0.000961738
   1.01958 0.00112035
   1.05875 0.00123182
   1.09791 0.00121616
   1.13708 0.00101363
   1.17624 0.000647301
   1.21541  0.0001933
   1.25457 -0.000251149
   1.29374 -0.000546931
    1.3329 -0.000702842
   1.37207 -0.000793607
   1.41123 -0.000870144
    1.4504 -0.00100602
   1.48956 -0.00131429
   1.52873 -0.00195873
   1.56789 -0.00263546
   1.60706 -0.00285262
   1.64622 -0.0021815
   1.68539 -0.000449204
   1.72107  0.0017436
   1.75152 0.00345314
   1.77865 0.00556946
   1.80281 0.00907645
   1.82434  0.0137379
   1.84353  0.0187767
   1.86062  0.0236142
   1.87584  0.0279397
   1.88941  0.0314756
    1.9015  0.0338653
   1.91226  0.0348346
   1.92186  0.0343607
    1.9304  0.0326576
   1.93802   0.030042
    1.9448  0.0268284
   1.95084  0.0233056
   1.95623   0.019736
   1.96103  0.0163389
    1.9653  0.0133378
   1.96911  0.0109088
    1.9725 0.00901007
   1.97552 0.00741134
   1.97822 0.00595028
   1.98061  0.0046547
   1.98275 0.00358095
   1.98466 0.00272401
   1.98635 0.00205717
   1.98786 0.00154764
   1.98921 0.00116304
   1.99041 0.000874903
   1.99148 0.000659914
   1.99243 0.000499756
   1.99333 0.000375219
   1.99421 0.00027353
    1.9951 0.000192124
     1.996 0.000128861
   1.99689 8.13945e-05
   1.99777 4.71517e-05
   1.99867 2.33002e-05
   1.99956 6.6839e-06
         2 6.21368e-06
