         0   -11.0149
  0.000445   -11.0099
  0.001335   -10.9999
  0.002225   -10.9896
  0.003115   -10.9786
  0.004005   -10.9668
  0.004895   -10.9536
  0.005785   -10.9387
  0.006675   -10.9217
0.00756867   -10.9018
0.00852095    -10.877
0.00958982   -10.8439
 0.0107896   -10.7989
 0.0121362   -10.7371
 0.0136477   -10.6515
 0.0153442   -10.5327
 0.0172484   -10.3687
 0.0193858   -10.1452
 0.0217849   -9.84653
 0.0244777   -9.46361
 0.0275001    -9.0266
 0.0308926   -8.60874
 0.0347005   -8.24715
 0.0389746   -7.90486
 0.0437719   -7.53296
 0.0491566   -7.11234
 0.0552005     -6.641
 0.0619844   -6.12162
 0.0695988   -5.56059
 0.0781455   -4.96907
 0.0877386   -4.36359
 0.0985062   -3.76537
  0.110592   -3.19719
  0.124158   -2.67744
  0.139384   -2.21479
  0.156474   -1.81001
  0.175657   -1.46427
  0.197189   -1.18314
  0.221357  -0.958577
  0.248483  -0.762888
  0.278931  -0.579763
  0.314615  -0.433585
   0.35378  -0.358973
  0.392945  -0.328799
   0.43211  -0.301079
  0.471275  -0.280673
   0.51044  -0.278464
  0.549604   -0.28151
  0.588769   -0.27364
  0.627934   -0.25838
  0.667099  -0.235834
  0.706264  -0.200666
  0.745429  -0.160595
  0.784593  -0.128211
  0.823758  -0.108947
  0.862923 -0.0967742
  0.902088 -0.0860108
  0.941253 -0.0741672
  0.980418 -0.0517662
   1.01958 -0.0175004
   1.05875  0.0217212
   1.09791  0.0631677
   1.13708   0.107285
   1.17624   0.150263
   1.21541   0.183052
   1.25457   0.206236
   1.29374   0.227011
    1.3329   0.249426
   1.37207   0.277879
   1.41123   0.313373
    1.4504   0.351285
   1.48956   0.381336
   1.52873   0.391789
   1.56789   0.396544
   1.60706    0.42645
   1.64622   0.483155
   1.68539   0.561161
   1.72107   0.649676
   1.75152   0.733585
   1.77865   0.839471
   1.80281    1.00487
   1.82434    1.24544
   1.84353     1.5641
   1.86062    1.95893
   1.87584    2.42533
   1.88941    2.95623
    1.9015    3.54183
   1.91226    4.16564
   1.92186    4.80436
    1.9304    5.43319
   1.93802    6.03104
    1.9448    6.58318
   1.95084    7.08133
   1.95623    7.52248
   1.96103    7.90944
    1.9653    8.26107
   1.96911    8.62604
    1.9725    9.04691
   1.97552    9.49035
   1.97822    9.87877
   1.98061    10.1797
   1.98275    10.4037
   1.98466    10.5671
   1.98635    10.6849
   1.98786    10.7694
   1.98921    10.8302
   1.99041    10.8743
   1.99148    10.9067
   1.99243     10.931
   1.99333    10.9505
   1.99421    10.9672
    1.9951    10.9819
     1.996    10.9949
   1.99689    11.0067
   1.99777    11.0176
   1.99867     11.028
   1.99956     11.038
         2    11.0429
