         0    2.64885
  0.000445    2.56762
  0.001335    2.41402
  0.002225    2.27158
  0.003115    2.13906
  0.004005    2.01541
  0.004895    1.89977
  0.005785    1.79135
  0.006675    1.68952
0.00756867    1.59336
0.00852095    1.49718
0.00958982    1.39641
 0.0107896    1.29171
 0.0121362    1.18402
 0.0136477    1.07468
 0.0153442   0.965507
 0.0172484   0.858823
 0.0193858    0.75737
 0.0217849   0.664132
 0.0244777   0.583182
 0.0275001   0.522834
 0.0308926   0.492926
 0.0347005   0.495489
 0.0389746   0.524542
 0.0437719   0.573875
 0.0491566   0.639268
 0.0552005   0.716465
 0.0619844   0.800404
 0.0695988   0.885695
 0.0781455   0.967394
 0.0877386    1.04166
 0.0985062    1.10592
  0.110592    1.15843
  0.124158    1.19748
  0.139384    1.22105
  0.156474    1.22744
  0.175657    1.21588
  0.197189    1.18751
  0.221357    1.14242
  0.248483    1.07873
  0.278931   0.994422
  0.314615   0.890215
   0.35378   0.794418
  0.392945   0.707797
   0.43211    0.62982
  0.471275   0.560691
   0.51044   0.499243
  0.549604    0.44447
  0.588769   0.393693
  0.627934   0.348097
  0.667099   0.308905
  0.706264   0.275511
  0.745429    0.24658
  0.784593   0.221291
  0.823758   0.199879
  0.862923   0.182743
  0.902088   0.170423
  0.941253   0.162954
  0.980418   0.159569
   1.01958   0.160491
   1.05875    0.16597
   1.09791   0.175939
   1.13708   0.190095
   1.17624   0.207436
   1.21541    0.22811
   1.25457   0.252892
   1.29374   0.281976
    1.3329   0.315908
   1.37207   0.355468
   1.41123   0.399645
    1.4504   0.448159
   1.48956     0.5046
   1.52873   0.569517
   1.56789   0.642684
   1.60706   0.724142
   1.64622   0.813236
   1.68539   0.911083
   1.72107    1.01522
   1.75152    1.10103
   1.77865    1.17048
   1.80281    1.22226
   1.82434    1.25293
   1.84353    1.26355
   1.86062     1.2566
   1.87584    1.23383
   1.88941    1.19614
    1.9015    1.14467
   1.91226    1.08075
   1.92186    1.00607
    1.9304   0.923182
   1.93802   0.835907
    1.9448   0.749231
   1.95084   0.668727
   1.95623   0.599811
   1.96103   0.547175
    1.9653   0.515419
   1.96911   0.511093
    1.9725   0.540629
   1.97552   0.602083
   1.97822   0.685118
   1.98061   0.781002
   1.98275   0.885526
   1.98466   0.995586
   1.98635    1.10831
   1.98786    1.22128
   1.98921    1.33259
   1.99041    1.44085
   1.99148    1.54506
   1.99243    1.64455
   1.99333    1.74404
   1.99421    1.84941
    1.9951    1.96161
     1.996    2.08132
   1.99689    2.20935
   1.99777    2.34661
   1.99867     2.4942
   1.99956    2.65342
         2    2.73765
