         0 0.00450789
  0.000445 0.00450789
  0.001335 0.00450789
  0.002225 0.00450793
  0.003115 0.00450804
  0.004005 0.00450826
  0.004895 0.00450857
  0.005785 0.00450894
  0.006675  0.0045093
0.00756867 0.00450956
0.00852095 0.00450957
0.00958982 0.00450903
 0.0107896  0.0045074
 0.0121362 0.00450366
 0.0136477 0.00449615
 0.0153442 0.00448211
 0.0172484 0.00445725
 0.0193858 0.00441525
 0.0217849 0.00434784
 0.0244777 0.00423606
 0.0275001 0.00404736
 0.0308926 0.00379991
 0.0347005 0.00358145
 0.0389746 0.00344108
 0.0437719 0.00337561
 0.0491566 0.00340793
 0.0552005 0.00359207
 0.0619844 0.00398599
 0.0695988 0.00463235
 0.0781455 0.00553602
 0.0877386 0.00664104
 0.0985062 0.00781366
  0.110592 0.00884814
  0.124158  0.0095228
  0.139384 0.00966605
  0.156474 0.00918419
  0.175657 0.00814422
  0.197189 0.00677029
  0.221357 0.00515068
  0.248483 0.00303656
  0.278931 0.000333075
  0.314615 -0.00254287
   0.35378 -0.00448119
  0.392945 -0.00486982
   0.43211 -0.00421713
  0.471275 -0.00309228
   0.51044 -0.00194183
  0.549604 -0.00078835
  0.588769 0.000456105
  0.627934 0.00137448
  0.667099 0.00165553
  0.706264 0.00156079
  0.745429 0.00132184
  0.784593 0.000782122
  0.823758 -2.71245e-05
  0.862923 -0.000568623
  0.902088 -0.000398145
  0.941253 0.000466182
  0.980418 0.00181018
   1.01958 0.00338473
   1.05875 0.00472235
   1.09791 0.00529916
   1.13708 0.00486407
   1.17624 0.00348706
   1.21541 0.00180119
   1.25457 0.000429332
   1.29374 -0.000630389
    1.3329 -0.00158957
   1.37207 -0.00257387
   1.41123 -0.00320467
    1.4504 -0.00339984
   1.48956 -0.00418071
   1.52873 -0.00566843
   1.56789 -0.0062138
   1.60706 -0.00490375
   1.64622 -0.00263022
   1.68539 -0.00107703
   1.72107 -0.000686318
   1.75152 -0.0006537
   1.77865 -0.00100512
   1.80281 -0.00183927
   1.82434 -0.00256756
   1.84353 -0.00275103
   1.86062 -0.00250904
   1.87584  -0.002204
   1.88941 -0.00208911
    1.9015 -0.00222396
   1.91226 -0.00251343
   1.92186 -0.00281321
    1.9304 -0.00302427
   1.93802 -0.00312292
    1.9448 -0.00313561
   1.95084 -0.00310338
   1.95623 -0.00306028
   1.96103 -0.00302462
    1.9653 -0.00300432
   1.96911 -0.00302167
    1.9725 -0.00309811
   1.97552 -0.00320573
   1.97822 -0.00330344
   1.98061 -0.00338184
   1.98275 -0.00344352
   1.98466 -0.00349093
   1.98635 -0.00352648
   1.98786 -0.0035524
   1.98921 -0.00357078
   1.99041 -0.00358345
   1.99148 -0.00359195
   1.99243 -0.00359751
   1.99333 -0.00360115
   1.99421 -0.00360353
    1.9951 -0.00360493
     1.996 -0.00360557
   1.99689 -0.0036057
   1.99777 -0.00360553
   1.99867 -0.00360526
   1.99956 -0.00360504
         2 -0.00360495
