         0 -0.0231759
  0.000445 -0.0231725
  0.001335 -0.0231598
  0.002225 -0.0231383
  0.003115 -0.0231117
  0.004005 -0.0230833
  0.004895 -0.0230577
  0.005785 -0.0230367
  0.006675 -0.0230252
0.00756867 -0.0230263
0.00852095 -0.0230462
0.00958982 -0.0230994
 0.0107896 -0.0232057
 0.0121362 -0.0233963
 0.0136477 -0.0237112
 0.0153442 -0.0241976
 0.0172484    -0.0249
 0.0193858 -0.0258402
 0.0217849 -0.0269788
 0.0244777 -0.0281132
 0.0275001 -0.0293402
 0.0308926 -0.0313665
 0.0347005    -0.0344
 0.0389746 -0.0378075
 0.0437719 -0.0407466
 0.0491566  -0.042131
 0.0552005 -0.0404937
 0.0619844 -0.0342932
 0.0695988 -0.0227201
 0.0781455 -0.00663417
 0.0877386   0.011033
 0.0985062  0.0260859
  0.110592  0.0352052
  0.124158  0.0381025
  0.139384   0.037358
  0.156474   0.034786
  0.175657  0.0288174
  0.197189  0.0166789
  0.221357 -0.0012333
  0.248483  -0.010359
  0.278931 0.00160235
  0.314615  0.0118019
   0.35378 -0.000801532
  0.392945 -0.0155771
   0.43211  -0.020094
  0.471275 -0.0223934
   0.51044 -0.0173444
  0.549604 -0.0100682
  0.588769 -0.0078012
  0.627934 0.00285287
  0.667099  0.0251313
  0.706264  0.0379688
  0.745429  0.0264166
  0.784593 0.00286374
  0.823758 -0.0176454
  0.862923 -0.0294211
  0.902088 -0.0284236
  0.941253 -0.0203521
  0.980418 -0.0119382
   1.01958 -0.00326263
   1.05875 0.00645781
   1.09791  0.0162616
   1.13708  0.0195027
   1.17624  0.0158609
   1.21541  0.0147312
   1.25457  0.0166153
   1.29374  0.0203921
    1.3329  0.0318467
   1.37207  0.0418267
   1.41123  0.0329558
    1.4504 0.00745466
   1.48956 -0.0172751
   1.52873 -0.0345309
   1.56789 -0.0426151
   1.60706 -0.0389022
   1.64622 -0.0272881
   1.68539  -0.012588
   1.72107 -0.00507667
   1.75152 -0.00714759
   1.77865 -0.0132133
   1.80281 -0.0181435
   1.82434 -0.0143843
   1.84353 -0.000754629
   1.86062  0.0162899
   1.87584  0.0292695
   1.88941  0.0349141
    1.9015  0.0338252
   1.91226   0.028581
   1.92186  0.0220576
    1.9304  0.0162974
   1.93802  0.0120791
    1.9448 0.00918788
   1.95084 0.00705394
   1.95623  0.0052508
   1.96103 0.00360145
    1.9653 0.00217744
   1.96911 0.00104161
    1.9725 2.15828e-05
   1.97552 -0.000840742
   1.97822 -0.00138818
   1.98061 -0.00177091
   1.98275 -0.00213327
   1.98466 -0.00247559
   1.98635 -0.00279007
   1.98786 -0.00306873
   1.98921 -0.0033076
   1.99041 -0.00350735
   1.99148 -0.00367114
   1.99243 -0.00380379
   1.99333 -0.00391511
   1.99421 -0.00401336
    1.9951 -0.00409858
     1.996 -0.0041708
   1.99689 -0.00422977
   1.99777 -0.00427489
   1.99867  -0.004306
   1.99956 -0.00432181
         2  -0.004326
