         0 -0.00831587
  0.000445 -0.00834064
  0.001335 -0.0251509
  0.002225 -0.0420061
  0.003115 -0.0587549
  0.004005 -0.0752481
  0.004895 -0.0913395
  0.005785  -0.106886
  0.006675   -0.12175
0.00756867  -0.135855
0.00852095  -0.149821
0.00958982  -0.164043
 0.0107896  -0.177965
 0.0121362  -0.190771
 0.0136477  -0.201327
 0.0153442  -0.208149
 0.0172484  -0.209416
 0.0193858  -0.203085
 0.0217849  -0.187119
 0.0244777  -0.159911
 0.0275001  -0.121005
 0.0308926 -0.0712592
 0.0347005 -0.0114657
 0.0389746  0.0586148
 0.0437719   0.139111
 0.0491566   0.228358
 0.0552005   0.322821
 0.0619844   0.417726
 0.0695988   0.507675
 0.0781455   0.587393
 0.0877386   0.652539
 0.0985062   0.700362
  0.110592   0.729973
  0.124158   0.742076
  0.139384   0.738297
  0.156474    0.72056
  0.175657   0.690839
  0.197189   0.651254
  0.221357   0.603876
  0.248483   0.550563
  0.278931   0.493983
  0.314615   0.432516
   0.35378   0.376152
  0.392945   0.328683
   0.43211   0.288667
  0.471275   0.254376
   0.51044   0.224176
  0.549604   0.197136
  0.588769   0.172712
  0.627934   0.150531
  0.667099    0.13022
  0.706264   0.111327
  0.745429  0.0935951
  0.784593  0.0768474
  0.823758  0.0609808
  0.862923  0.0458787
  0.902088   0.031516
  0.941253   0.017706
  0.980418 0.00420259
   1.01958 -0.00917373
   1.05875 -0.0226386
   1.09791 -0.0364802
   1.13708 -0.0508477
   1.17624 -0.0657579
   1.21541 -0.0812116
   1.25457 -0.0974236
   1.29374  -0.114715
    1.3329  -0.133448
   1.37207  -0.153884
   1.41123  -0.176007
    1.4504  -0.200277
   1.48956  -0.227481
   1.52873   -0.25808
   1.56789  -0.292884
   1.60706  -0.333223
   1.64622   -0.38163
   1.68539  -0.440503
   1.72107  -0.505592
   1.75152  -0.565944
   1.77865  -0.622318
   1.80281  -0.671784
   1.82434   -0.71254
   1.84353  -0.742797
   1.86062  -0.760711
   1.87584  -0.764198
   1.88941  -0.751192
    1.9015  -0.720089
   1.91226  -0.670335
   1.92186  -0.602951
    1.9304  -0.520748
   1.93802  -0.428104
    1.9448  -0.330371
   1.95084  -0.233073
   1.95623  -0.141125
   1.96103 -0.0581826
    1.9653  0.0140259
   1.96911  0.0756486
    1.9725   0.126967
   1.97552   0.167139
   1.97822   0.195219
   1.98061   0.211655
   1.98275   0.218111
   1.98466   0.216696
   1.98635    0.20953
   1.98786   0.198499
   1.98921   0.185143
   1.99041   0.170637
   1.99148   0.155826
   1.99243   0.141286
   1.99333   0.126606
   1.99421    0.11114
    1.9951  0.0949655
     1.996  0.0782281
   1.99689  0.0610758
   1.99777  0.0436608
   1.99867  0.0261388
   1.99956 0.00866721
         2 0.00864092
