         0   -10.9625
  0.000445   -10.9576
  0.001335   -10.9477
  0.002225   -10.9375
  0.003115   -10.9268
  0.004005   -10.9153
  0.004895   -10.9026
  0.005785   -10.8883
  0.006675    -10.872
0.00756867   -10.8531
0.00852095   -10.8293
0.00958982   -10.7975
 0.0107896   -10.7542
 0.0121362   -10.6944
 0.0136477   -10.6112
 0.0153442   -10.4951
 0.0172484   -10.3341
 0.0193858   -10.1135
 0.0217849   -9.81774
 0.0244777   -9.43797
 0.0275001   -9.00522
 0.0308926   -8.59179
 0.0347005   -8.23244
 0.0389746   -7.88948
 0.0437719   -7.51446
 0.0491566   -7.08786
 0.0552005   -6.60743
 0.0619844   -6.07686
 0.0695988   -5.50469
 0.0781455   -4.90437
 0.0877386   -4.29342
 0.0985062   -3.69161
  0.110592   -3.11848
  0.124158   -2.59081
  0.139384   -2.12096
  0.156474   -1.71624
  0.175657     -1.379
  0.197189   -1.10698
  0.221357  -0.893991
  0.248483  -0.731317
  0.278931  -0.607309
  0.314615  -0.513277
   0.35378  -0.448732
  0.392945  -0.404601
   0.43211   -0.36901
  0.471275  -0.339445
   0.51044  -0.313906
  0.549604  -0.289996
  0.588769  -0.266426
  0.627934  -0.243278
  0.667099  -0.220559
  0.706264  -0.198308
  0.745429  -0.176015
  0.784593  -0.152642
  0.823758  -0.127483
  0.862923  -0.100306
  0.902088 -0.0712093
  0.941253 -0.0407574
  0.980418 -0.00958064
   1.01958  0.0219753
   1.05875  0.0530498
   1.09791  0.0824375
   1.13708   0.109889
   1.17624   0.136055
   1.21541   0.161501
   1.25457   0.186036
   1.29374   0.208894
    1.3329   0.229925
   1.37207   0.250194
   1.41123   0.271012
    1.4504   0.292682
   1.48956   0.315066
   1.52873   0.338911
   1.56789   0.366384
   1.60706   0.400919
   1.64622   0.444415
   1.68539   0.506344
   1.72107    0.59505
   1.75152   0.711192
   1.77865   0.864213
   1.80281    1.06694
   1.82434    1.32912
   1.84353    1.65817
   1.86062    2.05803
   1.87584    2.52792
   1.88941    3.06099
    1.9015    3.64417
   1.91226    4.25936
   1.92186    4.88562
    1.9304    5.50193
   1.93802    6.08977
    1.9448    6.63498
   1.95084    7.12858
   1.95623     7.5667
   1.96103    7.95154
    1.9653    8.30227
   1.96911     8.6671
    1.9725     9.0863
   1.97552    9.52793
   1.97822     9.9178
   1.98061    10.2221
   1.98275    10.4492
   1.98466     10.615
   1.98635    10.7344
   1.98786      10.82
   1.98921    10.8814
   1.99041    10.9258
   1.99148    10.9584
   1.99243    10.9826
   1.99333    11.0019
   1.99421    11.0185
    1.9951    11.0329
     1.996    11.0457
   1.99689    11.0573
   1.99777     11.068
   1.99867    11.0782
   1.99956    11.0881
         2    11.0931
