         0 0.000300344
  0.000445 0.000300344
  0.001335 0.00270346
  0.002225 0.00751132
  0.003115  0.0147259
  0.004005   0.024348
  0.004895  0.0363754
  0.005785   0.050801
  0.006675  0.0676111
0.00756867  0.0868671
0.00852095   0.109971
0.00958982   0.139008
 0.0107896   0.175383
 0.0121362    0.22073
 0.0136477   0.276882
 0.0153442   0.345756
 0.0172484   0.429143
 0.0193858   0.528365
 0.0217849   0.643821
 0.0244777   0.774531
 0.0275001   0.919294
 0.0308926    1.08089
 0.0347005    1.26453
 0.0389746    1.47003
 0.0437719    1.69187
 0.0491566     1.9228
 0.0552005    2.15335
 0.0619844    2.37173
 0.0695988    2.56483
 0.0781455    2.71977
 0.0877386    2.82564
 0.0985062      2.875
  0.110592    2.86476
  0.124158    2.79614
  0.139384    2.67402
  0.156474    2.50615
  0.175657    2.30249
  0.197189     2.0747
  0.221357    1.83466
  0.248483     1.5943
  0.278931    1.36301
  0.314615    1.14319
   0.35378   0.956586
  0.392945   0.814486
   0.43211    0.70253
  0.471275   0.612839
   0.51044   0.538918
  0.549604   0.476711
  0.588769   0.423645
  0.627934   0.377991
  0.667099   0.338559
  0.706264   0.304293
  0.745429   0.274513
  0.784593   0.248909
  0.823758   0.227467
  0.862923   0.210241
  0.902088   0.197329
  0.941253   0.188902
  0.980418   0.184936
   1.01958   0.185265
   1.05875   0.189887
   1.09791   0.198689
   1.13708   0.211472
   1.17624   0.228141
   1.21541    0.24879
   1.25457   0.273897
   1.29374   0.303783
    1.3329   0.338491
   1.37207   0.378384
   1.41123   0.424209
    1.4504   0.477357
   1.48956   0.539677
   1.52873   0.613597
   1.56789   0.703203
   1.60706   0.815071
   1.64622   0.959067
   1.68539    1.15059
   1.72107    1.37675
   1.75152    1.61496
   1.77865    1.86363
   1.80281    2.11405
   1.82434    2.35332
   1.84353    2.56847
   1.86062    2.74684
   1.87584    2.87761
   1.88941    2.95245
    1.9015    2.96624
   1.91226    2.91768
   1.92186    2.81001
    1.9304    2.65095
   1.93802    2.45189
    1.9448    2.22628
   1.95084    1.98784
   1.95623    1.74892
   1.96103    1.51941
    1.9653    1.30685
   1.96911    1.11692
    1.9725   0.949904
   1.97552    0.80039
   1.97822   0.665385
   1.98061   0.546108
   1.98275   0.443586
   1.98466   0.357414
   1.98635   0.286232
   1.98786   0.228194
   1.98921    0.18132
   1.99041   0.143718
   1.99148     0.1137
   1.99243  0.0898143
   1.99333  0.0699062
   1.99421   0.052526
    1.9951  0.0376109
     1.996  0.0251752
   1.99689  0.0152263
   1.99777 0.00776659
   1.99867 0.00279535
   1.99956 0.000310552
         2 0.000310552
