         0 2.95828e-05
 0.0002225 2.95828e-05
 0.0006675 0.00031891
 0.0011125   0.001146
 0.0015575 0.00262894
 0.0020025 0.00474808
 0.0024475 0.00742589
 0.0028925   0.010558
 0.0033375  0.0140301
 0.0037825  0.0177318
 0.0042275  0.0215655
 0.0046725  0.0254493
 0.0051175  0.0293176
 0.0055625  0.0331191
 0.0060075  0.0368154
 0.0064525  0.0403785
 0.0068975   0.043791
 0.0073476  0.0470835
0.00781612  0.0503358
0.00831203  0.0535693
0.00883694  0.0567502
0.00939255  0.0598452
0.00998065  0.0628192
 0.0106031  0.0656346
  0.011262  0.0682521
 0.0119594   0.070631
 0.0126977  0.0727302
  0.013479  0.0745093
 0.0143061  0.0759303
 0.0151815  0.0769583
 0.0161082  0.0775632
  0.017089   0.077721
 0.0181271  0.0774147
  0.019226  0.0766349
 0.0203891  0.0753812
 0.0216203  0.0736617
 0.0229234  0.0714936
 0.0243028  0.0689025
 0.0257628  0.0659219
 0.0273082  0.0625927
  0.028944  0.0589625
 0.0306754  0.0550863
 0.0325081  0.0510255
 0.0344479   0.046845
 0.0365012  0.0426109
 0.0386746  0.0383879
  0.040975  0.0342361
   0.04341  0.0302099
 0.0459873  0.0263587
 0.0487154  0.0227247
  0.051603   0.019342
 0.0546595  0.0162375
 0.0578947  0.0134309
 0.0613191  0.0109304
 0.0649437  0.0087326
 0.0687803  0.0068231
 0.0728413 0.00518142
 0.0771397 0.00378184
 0.0816895 0.00259714
 0.0865054 0.00160126
 0.0916029 0.000773792
 0.0969985 9.91961e-05
   0.10271 -0.000436299
  0.108755 -0.00085763
  0.115153 -0.00120223
  0.121926 -0.00150369
  0.129095 -0.00178207
  0.136683 -0.00203163
  0.144715 -0.00221923
  0.153216 -0.00235896
  0.162214 -0.0024571
  0.171739 -0.00251946
  0.181821 -0.00256716
  0.192492 -0.0026201
  0.203788 -0.00266113
  0.215744 -0.00269478
  0.228399 -0.00273255
  0.241794 -0.00276791
  0.255972 -0.00278328
   0.27098 -0.0028496
  0.286865 -0.00331021
  0.304824 -0.00301348
  0.324407 -0.0022373
  0.343989 -0.00212176
  0.363571 -0.00211714
  0.383154 -0.00216159
  0.402736 -0.00222117
  0.422319 -0.0022406
  0.441901 -0.00226952
  0.461484 -0.00231279
  0.481066 -0.00234138
  0.500648 -0.00237425
  0.520231 -0.00238989
  0.539813 -0.0024036
  0.559396 -0.00240172
  0.578978 -0.00237376
   0.59856 -0.00235913
  0.618143 -0.00233262
  0.637725 -0.00227355
  0.657308 -0.00220204
   0.67689 -0.00214209
  0.696473 -0.00207916
  0.716055 -0.00198142
  0.735637 -0.00186342
   0.75522 -0.0017659
  0.774802 -0.00166583
  0.794385 -0.00155882
  0.813967 -0.00145273
  0.833549 -0.00132758
  0.853132 -0.00117944
  0.872714 -0.00102291
  0.892297 -0.00087326
  0.911879 -0.000723212
  0.931462 -0.000562163
  0.951044 -0.000400016
  0.970626 -0.00024332
  0.990209 -9.98057e-05
   1.00979 4.08314e-05
   1.02937 0.00019588
   1.04896 0.000344403
   1.06854 0.000473862
   1.08812 0.000603001
    1.1077 0.000757405
   1.12729 0.000920969
   1.14687 0.00108269
   1.16645 0.00124377
   1.18603 0.00140725
   1.20562 0.00155975
    1.2252 0.00168377
   1.24478 0.00178989
   1.26436 0.00187491
   1.28395 0.00193369
   1.30353 0.00199424
   1.32311 0.00206098
   1.34269 0.00214672
   1.36228 0.00224169
   1.38186 0.00231059
   1.40144  0.0023574
   1.42102 0.00239781
   1.44061 0.00243824
   1.46019 0.00247497
   1.47977 0.00247649
   1.49935 0.00246912
   1.51894 0.00246955
   1.53852 0.00245699
    1.5581 0.00244384
   1.57768 0.00241851
   1.59727  0.0023558
   1.61685 0.00229738
   1.63643 0.00229354
   1.65601 0.00231981
    1.6756 0.00236043
   1.69518  0.0030972
   1.71314 0.00341657
   1.72902  0.0029974
   1.74403 0.00296215
   1.75821 0.00295662
    1.7716 0.00288547
   1.78426 0.00280192
   1.79621 0.00272276
   1.80751  0.0026105
   1.81818 0.00247259
   1.82826 0.00236373
   1.83779 0.00227195
   1.84679 0.00215554
   1.85529 0.00199558
   1.86332 0.00179871
   1.87091 0.00156277
   1.87808 0.00128485
   1.88485 0.000949772
   1.89125 0.00054625
   1.89729 6.74117e-05
     1.903 -0.00049573
    1.9084 -0.00116313
    1.9135 -0.00197275
   1.91831 -0.00296453
   1.92286 -0.00415687
   1.92716 -0.00557025
   1.93122 -0.00723432
   1.93506 -0.00917134
   1.93868 -0.0113966
   1.94211 -0.0139193
   1.94534 -0.0167365
    1.9484  -0.019839
   1.95129 -0.0232112
   1.95401 -0.0268256
   1.95659 -0.0306461
   1.95903 -0.0346281
   1.96133 -0.0387197
    1.9635 -0.0428647
   1.96555 -0.0470042
   1.96749 -0.0510784
   1.96933  -0.055028
   1.97106 -0.0587941
   1.97269 -0.0623202
   1.97424  -0.065553
    1.9757 -0.0684436
   1.97708 -0.0709502
   1.97838 -0.0730391
   1.97961 -0.0746855
   1.98077 -0.0758729
   1.98187 -0.0765935
   1.98291 -0.0768484
   1.98389 -0.0766469
   1.98482 -0.0760063
   1.98569 -0.0749509
   1.98652 -0.0735108
    1.9873 -0.0717208
   1.98804 -0.0696188
   1.98874 -0.0672447
    1.9894 -0.0646389
   1.99002 -0.0618415
   1.99061  -0.058891
   1.99116 -0.0558244
   1.99169  -0.052676
   1.99218 -0.0494787
   1.99265 -0.0462653
    1.9931 -0.0430145
   1.99355 -0.0396476
   1.99399 -0.0361347
   1.99444 -0.0324933
   1.99488  -0.028751
   1.99533  -0.024946
   1.99577 -0.0211286
   1.99622 -0.0173637
   1.99666 -0.0137313
   1.99711 -0.0103271
   1.99755 -0.00725903
     1.998 -0.00463836
   1.99844 -0.00256638
   1.99889 -0.00111785
   1.99933 -0.000310778
   1.99978 -2.87709e-05
         2 -2.87709e-05
