         0  0.0890621
 0.0002225  0.0890621
 0.0006675  0.0890198
 0.0011125  0.0888879
 0.0015575  0.0886128
 0.0020025  0.0881493
 0.0024475  0.0874628
 0.0028925  0.0865322
 0.0033375  0.0853488
 0.0037825  0.0839159
 0.0042275  0.0822454
 0.0046725  0.0803561
 0.0051175  0.0782707
 0.0055625  0.0760144
 0.0060075  0.0736137
 0.0064525  0.0710954
 0.0068975   0.068486
 0.0073476  0.0657804
0.00781612  0.0629211
0.00831203  0.0598774
0.00883694  0.0566688
0.00939255  0.0533212
0.00998065  0.0498668
 0.0106031  0.0463435
  0.011262  0.0427937
 0.0119594  0.0392628
 0.0126977  0.0357971
  0.013479  0.0324412
 0.0143061  0.0292349
 0.0151815  0.0262104
 0.0161082  0.0233887
  0.017089  0.0207762
 0.0181271  0.0183624
  0.019226  0.0161213
 0.0203891  0.0140197
 0.0216203  0.0120293
 0.0229234  0.0101349
 0.0243028 0.00833254
 0.0257628 0.00662912
 0.0273082 0.00505153
  0.028944 0.00364788
 0.0306754 0.00246217
 0.0325081 0.00150103
 0.0344479 0.000734288
 0.0365012 0.000110063
 0.0386746 -0.000442702
  0.040975 -0.000972645
   0.04341 -0.0014489
 0.0459873 -0.00179727
 0.0487154 -0.0019829
  0.051603 -0.00203385
 0.0546595 -0.00203121
 0.0578947 -0.00202417
 0.0613191 -0.00193526
 0.0649437 -0.00169207
 0.0687803 -0.00132273
 0.0728413 -0.000849734
 0.0771397 -0.000302693
 0.0816895 0.000192907
 0.0865054 0.000474079
 0.0916029 0.000528192
 0.0969985 0.000575402
   0.10271 0.000841011
  0.108755 0.00110744
  0.115153 0.00101073
  0.121926 0.000557848
  0.129095 6.72876e-06
  0.136683 -0.00031596
  0.144715 -0.000442616
  0.153216  -0.000845
  0.162214 -0.00138817
  0.171739 -0.00153704
  0.181821 -0.00142318
  0.192492 -0.00165063
  0.203788 -0.00222208
  0.215744 -0.00289365
  0.228399 -0.00432851
  0.241794 -0.00598561
  0.255972 -0.00643324
   0.27098 -0.00600389
  0.286865 -0.00533646
  0.304824 -0.00430623
  0.324407 -0.00348444
  0.343989 -0.00324055
  0.363571 -0.00431245
  0.383154 -0.00533144
  0.402736 -0.0037622
  0.422319 -0.00202567
  0.441901 -0.00189697
  0.461484 -0.00262975
  0.481066 -0.00280091
  0.500648 -0.00180824
  0.520231 -0.000671966
  0.539813 -0.000445392
  0.559396 -0.00116731
  0.578978 -0.0014167
   0.59856 -0.000285152
  0.618143 0.00136623
  0.637725 0.00277038
  0.657308 0.00280219
   0.67689 0.00171018
  0.696473 0.00149431
  0.716055 0.00130518
  0.735637 0.000741162
   0.75522 0.000770735
  0.774802 0.00111312
  0.794385 0.00152201
  0.813967 0.00200834
  0.833549 0.00212645
  0.853132  0.0017368
  0.872714 0.00160326
  0.892297 0.00159129
  0.911879 0.00119503
  0.931462 0.000476203
  0.951044 -0.00020194
  0.970626 7.31813e-05
  0.990209 0.000614085
   1.00979 0.000810356
   1.02937 0.000589547
   1.04896 2.1034e-05
   1.06854 -0.000445281
   1.08812 -0.000748667
    1.1077 -0.00070706
   1.12729 -0.000183564
   1.14687 0.000676338
   1.16645 0.00156277
   1.18603 0.00192058
   1.20562  0.0010404
    1.2252 -0.000473272
   1.24478 -0.00121291
   1.26436 -0.00153391
   1.28395 -0.00193255
   1.30353 -0.00243515
   1.32311 -0.00336399
   1.34269 -0.00387176
   1.36228 -0.00395175
   1.38186 -0.00416161
   1.40144 -0.0041938
   1.42102 -0.0050391
   1.44061 -0.00610355
   1.46019 -0.00606612
   1.47977 -0.00597823
   1.49935 -0.00613123
   1.51894 -0.00591974
   1.53852 -0.00567582
    1.5581 -0.00568178
   1.57768 -0.00506948
   1.59727 -0.00440105
   1.61685 -0.00372783
   1.63643 -0.00193455
   1.65601 -0.000818747
    1.6756 -0.00135285
   1.69518 -0.00255995
   1.71314 -0.00389499
   1.72902 -0.00420607
   1.74403 -0.00287004
   1.75821 -0.00210419
    1.7716 -0.00223796
   1.78426 -0.00134113
   1.79621 -0.000189605
   1.80751 0.00035015
   1.81818 0.000593218
   1.82826 0.000963002
   1.83779  0.0015427
   1.84679 0.00208095
   1.85529 0.00232879
   1.86332 0.00222745
   1.87091 0.00211424
   1.87808 0.00236242
   1.88485  0.0030523
   1.89125 0.00396154
   1.89729  0.0050051
     1.903 0.00607452
    1.9084 0.00674768
    1.9135 0.00700415
   1.91831 0.00721703
   1.92286 0.00741502
   1.92716 0.00737937
   1.93122 0.00708322
   1.93506 0.00671627
   1.93868 0.00644713
   1.94211 0.00633762
   1.94534 0.00639415
    1.9484 0.00659327
   1.95129  0.0068791
   1.95401 0.00724262
   1.95659 0.00775068
   1.95903 0.00845202
   1.96133 0.00931367
    1.9635  0.0102682
   1.96555  0.0112828
   1.96749  0.0123467
   1.96933  0.0134169
   1.97106  0.0144315
   1.97269  0.0153658
   1.97424  0.0162428
    1.9757  0.0171052
   1.97708  0.0179932
   1.97838  0.0189336
   1.97961  0.0199378
   1.98077  0.0210069
   1.98187  0.0221397
   1.98291   0.023338
   1.98389  0.0246088
   1.98482  0.0259613
   1.98569  0.0274037
   1.98652  0.0289398
    1.9873  0.0305672
   1.98804  0.0322763
   1.98874  0.0340516
    1.9894  0.0358729
   1.99002  0.0377184
   1.99061   0.039566
   1.99116  0.0413951
   1.99169   0.043187
   1.99218  0.0449253
   1.99265   0.046596
    1.9931  0.0482143
   1.99355  0.0498127
   1.99399  0.0513933
   1.99444  0.0529374
   1.99488  0.0544241
   1.99533  0.0558302
   1.99577   0.057131
   1.99622  0.0583021
   1.99666  0.0593214
   1.99711  0.0601716
   1.99755  0.0608435
     1.998  0.0613384
   1.99844  0.0616699
   1.99889  0.0618634
   1.99933  0.0619538
   1.99978  0.0619814
         2  0.0619814
