         0    2948.74
 0.0002225    2948.74
 0.0006675    2914.17
 0.0011125    2883.87
 0.0015575    2851.29
 0.0020025    2811.27
 0.0024475    2760.21
 0.0028925    2696.15
 0.0033375    2618.67
 0.0037825    2528.71
 0.0042275    2428.13
 0.0046725    2319.35
 0.0051175    2205.01
 0.0055625    2087.67
 0.0060075    1969.65
 0.0064525    1852.95
 0.0068975    1739.17
 0.0073476    1628.29
0.00781612    1518.33
0.00831203    1408.82
0.00883694    1301.07
0.00939255    1196.32
0.00998065    1095.65
 0.0106031    1000.01
  0.011262    910.124
 0.0119594    826.504
 0.0126977    749.451
  0.013479    679.058
 0.0143061    615.239
 0.0151815    557.752
 0.0161082    506.242
  0.017089    460.267
 0.0181271    419.332
  0.019226    382.924
 0.0203891    350.532
 0.0216203     321.67
 0.0229234    295.891
 0.0243028    272.789
 0.0257628    252.008
 0.0273082    233.237
  0.028944     216.21
 0.0306754    200.703
 0.0325081    186.525
 0.0344479    173.519
 0.0365012    161.556
 0.0386746    150.529
  0.040975    140.342
   0.04341    130.911
 0.0459873    122.155
 0.0487154    114.008
  0.051603    106.419
 0.0546595    99.3407
 0.0578947    92.7313
 0.0613191    86.5555
 0.0649437    80.7862
 0.0687803    75.3943
 0.0728413    70.3528
 0.0771397     65.638
 0.0816895    61.2281
 0.0865054    57.1054
 0.0916029    53.2559
 0.0969985    49.6615
   0.10271    46.3062
  0.108755    43.1744
  0.115153    40.2509
  0.121926    37.5259
  0.129095    34.9829
  0.136683    32.6082
  0.144715    30.3917
  0.153216     28.319
  0.162214    26.3782
  0.171739    24.5691
  0.181821    22.8843
  0.192492    21.3128
  0.203788    19.8462
  0.215744    18.4829
  0.228399    17.2127
  0.241794    16.0347
  0.255972     14.943
   0.27098    13.9335
  0.286865    12.8181
  0.304824    11.7006
  0.324407    10.8207
  0.343989    10.1695
  0.363571    9.56106
  0.383154    8.99994
  0.402736    8.48202
  0.422319    8.00407
  0.441901    7.56307
  0.461484    7.14598
  0.481066    6.75065
  0.500648    6.38504
  0.520231    6.04269
  0.539813    5.71954
  0.559396    5.41273
  0.578978    5.12174
   0.59856    4.84996
  0.618143    4.59285
  0.637725    4.34937
  0.657308    4.11948
   0.67689    3.90472
  0.696473    3.69983
  0.716055      3.505
  0.735637     3.3251
   0.75522    3.15944
  0.774802    3.00451
  0.794385    2.86169
  0.813967    2.73061
  0.833549    2.61092
  0.853132    2.50196
  0.872714    2.40479
  0.892297    2.32084
  0.911879    2.25116
  0.931462    2.19548
  0.951044    2.15404
  0.970626    2.12665
  0.990209    2.11296
   1.00979    2.11135
   1.02937    2.12318
   1.04896    2.14888
   1.06854    2.18801
   1.08812     2.2375
    1.1077    2.30001
   1.12729     2.3767
   1.14687    2.46795
   1.16645    2.57272
   1.18603      2.688
   1.20562    2.81483
    1.2252    2.95342
   1.24478    3.10697
   1.26436    3.27427
   1.28395    3.45109
   1.30353    3.64243
   1.32311    3.84733
   1.34269    4.06457
   1.36228    4.29365
   1.38186     4.5372
   1.40144    4.79488
   1.42102    5.06788
   1.44061    5.36108
   1.46019    5.67229
   1.47977    6.00223
   1.49935    6.35052
   1.51894     6.7226
   1.53852    7.12257
    1.5581    7.55371
   1.57768    8.01944
   1.59727    8.52676
   1.61685    9.08042
   1.63643    9.68497
   1.65601    10.3377
    1.6756    11.0253
   1.69518    11.9329
   1.71314    13.0802
   1.72902    14.2219
   1.74403    15.2429
   1.75821    16.3421
    1.7716    17.5262
   1.78426    18.7942
   1.79621    20.1447
   1.80751    21.5824
   1.81818    23.1212
   1.82826    24.7719
   1.83779    26.5475
   1.84679    28.4532
   1.85529    30.4987
   1.86332    32.6883
   1.87091    35.0307
   1.87808    37.5407
   1.88485    40.2237
   1.89125    43.0903
   1.89729    46.1566
     1.903    49.4412
    1.9084    52.9672
    1.9135    56.7466
   1.91831    60.7878
   1.92286    65.1058
   1.92716    69.7234
   1.93122    74.6682
   1.93506    79.9609
   1.93868    85.6191
   1.94211    91.6708
   1.94534    98.1546
    1.9484    105.109
   1.95129    112.571
   1.95401    120.586
   1.95659    129.205
   1.95903    138.487
   1.96133    148.507
    1.9635     159.35
   1.96555    171.117
   1.96749    183.925
   1.96933    197.903
   1.97106    213.207
   1.97269    230.023
   1.97424     248.57
    1.9757    269.112
   1.97708    291.957
   1.97838    317.462
   1.97961    346.027
   1.98077    378.098
   1.98187    414.156
   1.98291    454.705
   1.98389    500.252
   1.98482    551.277
   1.98569     608.21
   1.98652    671.393
    1.9873    741.052
   1.98804    817.255
   1.98874     899.89
    1.9894    988.641
   1.99002    1082.98
   1.99061    1182.16
   1.99116    1285.26
   1.99169    1391.16
   1.99218    1498.66
   1.99265    1606.46
    1.9931    1715.03
   1.99355    1826.27
   1.99399    1940.22
   1.99444    2055.27
   1.99488     2169.5
   1.99533    2280.64
   1.99577    2386.21
   1.99622     2483.7
   1.99666    2570.79
   1.99711    2645.74
   1.99755     2707.7
     1.998    2757.13
   1.99844    2795.98
   1.99889    2827.74
   1.99933    2857.41
   1.99978    2891.34
         2    2891.34
