         0 -2.70859e-05
 0.0002225 -2.70859e-05
 0.0006675 -0.000331999
 0.0011125 -0.00117801
 0.0015575 -0.00264499
 0.0020025 -0.00475184
 0.0024475 -0.00742535
 0.0028925 -0.0105553
 0.0033375 -0.0140257
 0.0037825 -0.0177263
 0.0042275 -0.0215594
 0.0046725  -0.025443
 0.0051175 -0.0293111
 0.0055625 -0.0331122
 0.0060075 -0.0368069
 0.0064525  -0.040368
 0.0068975 -0.0437834
 0.0073476  -0.047082
0.00781612 -0.0503327
0.00831203  -0.053562
0.00883694 -0.0567411
0.00939255 -0.0598352
0.00998065 -0.0628082
 0.0106031 -0.0656224
  0.011262 -0.0682386
 0.0119594 -0.0706159
 0.0126977 -0.0727135
  0.013479  -0.074491
 0.0143061 -0.0759103
 0.0151815 -0.0769366
 0.0161082   -0.07754
  0.017089 -0.0776963
 0.0181271 -0.0773885
  0.019226 -0.0766075
 0.0203891 -0.0753527
 0.0216203 -0.0736324
 0.0229234 -0.0714637
 0.0243028 -0.0688722
 0.0257628 -0.0658915
 0.0273082 -0.0625625
  0.028944 -0.0589329
 0.0306754 -0.0550577
 0.0325081 -0.0509983
 0.0344479 -0.0468194
 0.0365012 -0.0425873
 0.0386746 -0.0383663
  0.040975 -0.0342165
   0.04341 -0.0301924
 0.0459873 -0.0263435
 0.0487154 -0.0227116
  0.051603  -0.019331
 0.0546595 -0.0162287
 0.0578947 -0.0134239
 0.0613191 -0.0109253
 0.0649437 -0.00872885
 0.0687803 -0.00682082
 0.0728413 -0.00518033
 0.0771397 -0.00378178
 0.0816895 -0.00259805
 0.0865054 -0.00160299
 0.0916029 -0.000776166
 0.0969985 -0.000102556
   0.10271 0.000432843
  0.108755 0.000853978
  0.115153 0.00119873
  0.121926  0.0014996
  0.129095 0.00177872
  0.136683 0.00202698
  0.144715 0.00221568
  0.153216 0.00235531
  0.162214 0.00245309
  0.171739 0.00251682
  0.181821 0.00256293
  0.192492 0.00261897
  0.203788 0.00265535
  0.215744 0.00269636
  0.228399 0.00272472
  0.241794 0.00277274
  0.255972 0.00277179
   0.27098 0.00285854
  0.286865 0.00330236
  0.304824 0.00300902
  0.324407 0.00224343
  0.343989 0.00211387
  0.363571 0.00212162
  0.383154 0.00215678
  0.402736 0.00222359
  0.422319 0.00223723
  0.441901 0.00227141
  0.461484 0.00230992
  0.481066 0.00234273
  0.500648  0.0023722
  0.520231 0.00239044
  0.539813 0.00240241
  0.559396 0.00240147
  0.578978 0.00237322
   0.59856 0.00235864
  0.618143 0.00233214
  0.637725 0.00227306
  0.657308 0.00220172
   0.67689 0.00214165
  0.696473 0.00207883
  0.716055 0.00198074
  0.735637 0.00186355
   0.75522  0.0017652
  0.774802  0.0016657
  0.794385 0.00155849
  0.813967 0.00145244
  0.833549  0.0013273
  0.853132 0.00117923
  0.872714 0.00102279
  0.892297 0.000873129
  0.911879 0.000723025
  0.931462 0.000562082
  0.951044 0.000399962
  0.970626 0.000243204
  0.990209 9.99806e-05
   1.00979 -4.1123e-05
   1.02937 -0.00019558
   1.04896 -0.000344543
   1.06854 -0.000473441
   1.08812 -0.000603342
    1.1077 -0.000756947
   1.12729 -0.000920989
   1.14687 -0.00108231
   1.16645 -0.00124372
   1.18603 -0.0014069
   1.20562 -0.00155948
    1.2252 -0.00168336
   1.24478 -0.00178974
   1.26436 -0.00187419
   1.28395 -0.00193382
   1.30353 -0.00199338
   1.32311 -0.00206103
   1.34269 -0.00214597
   1.36228 -0.00224153
   1.38186 -0.00230967
   1.40144 -0.00235751
   1.42102 -0.00239658
   1.44061 -0.0024386
   1.46019 -0.00247335
   1.47977 -0.00247704
   1.49935 -0.00246729
   1.51894 -0.00247061
   1.53852 -0.00245408
    1.5581 -0.00244621
   1.57768 -0.00241403
   1.59727 -0.00235963
   1.61685 -0.00229108
   1.63643 -0.00229968
   1.65601 -0.00230982
    1.6756 -0.00236839
   1.69518 -0.00309134
   1.71314 -0.00341015
   1.72902 -0.0030049
   1.74403 -0.00295218
   1.75821 -0.00295999
    1.7716 -0.00287884
   1.78426 -0.00280294
   1.79621 -0.00271746
   1.80751 -0.00260908
   1.81818 -0.00246881
   1.82826 -0.00236133
   1.83779  -0.002268
   1.84679  -0.002152
   1.85529 -0.00199182
   1.86332 -0.00179496
   1.87091 -0.00155925
   1.87808 -0.00128092
   1.88485 -0.00094624
   1.89125 -0.000542803
   1.89729 -6.44023e-05
     1.903 0.000498205
    1.9084  0.0011652
    1.9135 0.00197476
   1.91831 0.00296514
   1.92286 0.00415648
   1.92716 0.00556906
   1.93122 0.00723189
   1.93506 0.00916756
   1.93868  0.0113914
   1.94211  0.0139121
   1.94534  0.0167275
    1.9484  0.0198282
   1.95129  0.0231982
   1.95401  0.0268106
   1.95659   0.030629
   1.95903  0.0346087
   1.96133  0.0386982
    1.9635  0.0428412
   1.96555   0.046979
   1.96749  0.0510519
   1.96933  0.0550003
   1.97106  0.0587655
   1.97269   0.062291
   1.97424  0.0655235
    1.9757  0.0684141
   1.97708  0.0709211
   1.97838  0.0730107
   1.97961  0.0746579
   1.98077  0.0758463
   1.98187  0.0765682
   1.98291  0.0768244
   1.98389  0.0766244
   1.98482  0.0759854
   1.98569  0.0749317
   1.98652  0.0734932
    1.9873  0.0717049
   1.98804  0.0696044
   1.98874  0.0672317
    1.9894  0.0646273
   1.99002   0.061831
   1.99061  0.0588815
   1.99116  0.0558156
   1.99169  0.0526691
   1.99218  0.0494758
   1.99265   0.046264
    1.9931  0.0430072
   1.99355  0.0396374
   1.99399  0.0361265
   1.99444  0.0324866
   1.99488  0.0287447
   1.99533  0.0249398
   1.99577  0.0211228
   1.99622  0.0173583
   1.99666   0.013727
   1.99711  0.0103245
   1.99755 0.00725859
     1.998  0.0046421
   1.99844  0.0025821
   1.99889 0.00114907
   1.99933 0.000323423
   1.99978 2.62382e-05
         2 2.62382e-05
