         0 0.00516894
 0.0002225 0.00516894
 0.0006675 0.00516891
 0.0011125 0.00516864
 0.0015575 0.00516788
 0.0020025 0.00516632
 0.0024475 0.00516369
 0.0028925 0.00515977
 0.0033375 0.00515438
 0.0037825 0.00514739
 0.0042275 0.00513871
 0.0046725 0.00512831
 0.0051175 0.00511618
 0.0055625 0.00510233
 0.0060075 0.00508679
 0.0064525 0.00506962
 0.0068975 0.00505088
 0.0073476  0.0050304
0.00781612 0.00500752
0.00831203 0.00498165
0.00883694 0.00495254
0.00939255 0.00491993
0.00998065 0.00488356
 0.0106031  0.0048432
  0.011262 0.00479863
 0.0119594 0.00474964
 0.0126977 0.00469608
  0.013479 0.00463782
 0.0143061 0.00457479
 0.0151815 0.00450694
 0.0161082 0.00443431
  0.017089 0.00435699
 0.0181271 0.00427513
  0.019226 0.00418897
 0.0203891 0.00409882
 0.0216203 0.00400508
 0.0229234 0.00390825
 0.0243028 0.00380892
 0.0257628 0.00370772
 0.0273082 0.00360535
  0.028944 0.00350259
 0.0306754 0.00340033
 0.0325081 0.00329936
 0.0344479 0.00320047
 0.0365012 0.00310448
 0.0386746 0.00301235
  0.040975 0.00292514
   0.04341 0.00284379
 0.0459873 0.00276887
 0.0487154 0.00270069
  0.051603 0.00263972
 0.0546595 0.00258604
 0.0578947  0.0025398
 0.0613191 0.00250091
 0.0649437 0.00246936
 0.0687803 0.00244611
 0.0728413 0.00243079
 0.0771397 0.00242156
 0.0816895 0.00241798
 0.0865054 0.00242014
 0.0916029 0.00242876
 0.0969985 0.00244001
   0.10271  0.0024489
  0.108755 0.00245609
  0.115153 0.00246351
  0.121926 0.00247544
  0.129095 0.00249373
  0.136683 0.00252091
  0.144715 0.00255132
  0.153216 0.00257649
  0.162214 0.00259194
  0.171739 0.00260537
  0.181821 0.00262335
  0.192492  0.0026468
  0.203788 0.00267485
  0.215744 0.00271007
  0.228399 0.00275339
  0.241794 0.00278929
  0.255972 0.00283097
   0.27098 0.00287496
  0.286865 0.00291349
  0.304824 0.00296671
  0.324407 0.00300928
  0.343989 0.00306786
  0.363571 0.00313313
  0.383154 0.00317579
  0.402736 0.00323956
  0.422319 0.00329389
  0.441901 0.00333483
  0.461484  0.0033599
  0.481066 0.00338565
  0.500648 0.00342172
  0.520231 0.00345403
  0.539813 0.00351105
  0.559396 0.00357359
  0.578978 0.00363278
   0.59856 0.00368434
  0.618143 0.00371979
  0.637725 0.00375031
  0.657308 0.00378422
   0.67689 0.00381719
  0.696473 0.00384522
  0.716055 0.00387674
  0.735637 0.00390049
   0.75522 0.00393485
  0.774802 0.00397657
  0.794385 0.00401915
  0.813967 0.00405998
  0.833549 0.00409739
  0.853132 0.00413948
  0.872714 0.00417871
  0.892297 0.00420939
  0.911879 0.00423412
  0.931462 0.00424895
  0.951044 0.00425606
  0.970626 0.00426199
  0.990209 0.00425469
   1.00979 0.00424089
   1.02937 0.00422697
   1.04896 0.00420892
   1.06854 0.00419244
   1.08812 0.00417839
    1.1077 0.00415866
   1.12729 0.00413037
   1.14687 0.00409927
   1.16645 0.00407477
   1.18603 0.00405859
   1.20562 0.00403481
    1.2252 0.00400098
   1.24478  0.0039568
   1.26436 0.00390602
   1.28395 0.00385433
   1.30353 0.00380652
   1.32311 0.00376266
   1.34269 0.00372201
   1.36228 0.00368327
   1.38186 0.00364171
   1.40144  0.0035902
   1.42102 0.00354217
   1.44061 0.00349501
   1.46019 0.00344993
   1.47977 0.00339478
   1.49935 0.00334516
   1.51894 0.00330405
   1.53852 0.00325986
    1.5581 0.00323498
   1.57768 0.00319521
   1.59727 0.00315997
   1.61685 0.00311469
   1.63643 0.00307059
   1.65601 0.00301969
    1.6756  0.0029602
   1.69518 0.00291739
   1.71314 0.00285356
   1.72902 0.00280097
   1.74403 0.00275718
   1.75821 0.00271287
    1.7716 0.00266953
   1.78426  0.0026398
   1.79621 0.00260927
   1.80751 0.00257247
   1.81818 0.00253689
   1.82826  0.0025114
   1.83779 0.00249146
   1.84679 0.00247484
   1.85529 0.00246936
   1.86332 0.00246616
   1.87091 0.00245829
   1.87808 0.00244459
   1.88485 0.00242731
   1.89125 0.00241021
   1.89729 0.00240138
     1.903 0.00240267
    1.9084 0.00241035
    1.9135 0.00242279
   1.91831 0.00243628
   1.92286 0.00245032
   1.92716 0.00246666
   1.93122 0.00248617
   1.93506 0.00251048
   1.93868 0.00254124
   1.94211 0.00257912
   1.94534 0.00262439
    1.9484 0.00267761
   1.95129 0.00273779
   1.95401 0.00280403
   1.95659 0.00287588
   1.95903 0.00295322
   1.96133 0.00303603
    1.9635 0.00312416
   1.96555 0.00321705
   1.96749 0.00331378
   1.96933 0.00341332
   1.97106 0.00351463
   1.97269 0.00361655
   1.97424 0.00371812
    1.9757 0.00381849
   1.97708   0.003917
   1.97838 0.00401306
   1.97961 0.00410617
   1.98077 0.00419585
   1.98187 0.00428169
   1.98291 0.00436333
   1.98389 0.00444047
   1.98482  0.0045129
   1.98569  0.0045805
   1.98652 0.00464323
    1.9873 0.00470114
   1.98804 0.00475432
   1.98874 0.00480291
    1.9894  0.0048471
   1.99002 0.00488711
   1.99061 0.00492316
   1.99116  0.0049555
   1.99169 0.00498439
   1.99218 0.00501009
   1.99265 0.00503284
    1.9931 0.00505323
   1.99355 0.00507189
   1.99399   0.005089
   1.99444 0.00510449
   1.99488 0.00511831
   1.99533 0.00513042
   1.99577  0.0051408
   1.99622 0.00514947
   1.99666 0.00515646
   1.99711 0.00516185
   1.99755 0.00516577
     1.998  0.0051684
   1.99844 0.00516996
   1.99889 0.00517073
   1.99933   0.005171
   1.99978 0.00517102
         2 0.00517102
