         0 -0.000167209
 0.0002225 -0.000167209
 0.0006675 -0.000167233
 0.0011125 -0.000167505
 0.0015575 -0.000168282
 0.0020025 -0.000169859
 0.0024475 -0.000172511
 0.0028925 -0.000176467
 0.0033375 -0.000181905
 0.0037825 -0.00018895
 0.0042275 -0.000197682
 0.0046725 -0.000208138
 0.0051175 -0.000220326
 0.0055625 -0.000234225
 0.0060075 -0.000249796
 0.0064525 -0.000266983
 0.0068975 -0.000285723
 0.0073476 -0.000306182
0.00781612 -0.000329003
0.00831203 -0.000354769
0.00883694 -0.000383727
0.00939255 -0.000416127
0.00998065 -0.000452211
 0.0106031 -0.000492212
  0.011262 -0.000536348
 0.0119594 -0.000584813
 0.0126977 -0.000637772
  0.013479 -0.000695349
 0.0143061 -0.000757623
 0.0151815 -0.000824616
 0.0161082 -0.000896288
  0.017089 -0.000972529
 0.0181271 -0.00105315
  0.019226 -0.00113789
 0.0203891 -0.00122641
 0.0216203 -0.00131826
 0.0229234 -0.00141294
 0.0243028 -0.00150987
 0.0257628 -0.00160839
 0.0273082 -0.00170777
  0.028944 -0.00180725
 0.0306754 -0.00190603
 0.0325081 -0.00200328
 0.0344479 -0.0020982
 0.0365012 -0.00218999
 0.0386746 -0.00227794
  0.040975 -0.00236137
   0.04341 -0.0024397
 0.0459873 -0.00251242
 0.0487154 -0.00257918
  0.051603 -0.00263969
 0.0546595 -0.00269381
 0.0578947 -0.00274153
 0.0613191 -0.00278295
 0.0649437 -0.0028183
 0.0687803 -0.00284787
 0.0728413 -0.00287197
 0.0771397 -0.00289099
 0.0816895 -0.00290527
 0.0865054 -0.00291518
 0.0916029 -0.00292104
 0.0969985 -0.00292321
   0.10271 -0.00292208
  0.108755 -0.00291804
  0.115153 -0.00291139
  0.121926 -0.0029022
  0.129095 -0.00289043
  0.136683 -0.00287589
  0.144715 -0.00285872
  0.153216 -0.00283922
  0.162214 -0.00281747
  0.171739 -0.00279376
  0.181821 -0.00276811
  0.192492 -0.00274056
  0.203788 -0.00271055
  0.215744 -0.00267883
  0.228399 -0.00264416
  0.241794 -0.00260786
  0.255972 -0.00256766
   0.27098 -0.00252701
  0.286865 -0.00247922
  0.304824 -0.00241464
  0.324407 -0.00236721
  0.343989 -0.00232677
  0.363571 -0.00228442
  0.383154 -0.00224368
  0.402736 -0.00219995
  0.422319 -0.00215659
  0.441901 -0.00211233
  0.461484 -0.00206763
  0.481066 -0.00202186
  0.500648 -0.00197588
  0.520231 -0.00192895
  0.539813 -0.00188226
  0.559396 -0.00183486
  0.578978 -0.00178821
   0.59856 -0.00174192
  0.618143 -0.00169583
  0.637725 -0.00165058
  0.657308 -0.00160681
   0.67689 -0.00156435
  0.696473 -0.00152293
  0.716055 -0.00148293
  0.735637 -0.00144535
   0.75522 -0.00140995
  0.774802 -0.00137622
  0.794385 -0.00134471
  0.813967 -0.00131518
  0.833549 -0.00128782
  0.853132 -0.0012632
  0.872714 -0.00124164
  0.892297 -0.00122314
  0.911879 -0.00120744
  0.931462 -0.00119482
  0.951044 -0.00118543
  0.970626 -0.00117916
  0.990209 -0.00117591
   1.00979 -0.00117524
   1.02937 -0.00117752
   1.04896 -0.0011829
   1.06854 -0.00119101
   1.08812 -0.00120145
    1.1077 -0.00121464
   1.12729 -0.00123109
   1.14687 -0.00125071
   1.16645 -0.00127348
   1.18603 -0.00129942
   1.20562 -0.00132858
    1.2252 -0.0013605
   1.24478 -0.00139451
   1.26436 -0.00143059
   1.28395 -0.00146791
   1.30353 -0.00150633
   1.32311 -0.00154598
   1.34269 -0.00158705
   1.36228 -0.00163003
   1.38186 -0.00167484
   1.40144 -0.00172049
   1.42102 -0.00176717
   1.44061 -0.00181435
   1.46019 -0.00186268
   1.47977 -0.00191122
   1.49935 -0.00195969
   1.51894 -0.00200785
   1.53852 -0.00205646
    1.5581 -0.00210397
   1.57768 -0.00215226
   1.59727 -0.00219851
   1.61685 -0.00224468
   1.63643 -0.00228824
   1.65601 -0.00233474
    1.6756 -0.00237871
   1.69518 -0.0024275
   1.71314 -0.00249379
   1.72902 -0.0025435
   1.74403 -0.00258673
   1.75821 -0.0026296
    1.7716 -0.00266839
   1.78426 -0.00270461
   1.79621 -0.00273742
   1.80751 -0.00276781
   1.81818 -0.00279478
   1.82826 -0.00281908
   1.83779 -0.0028411
   1.84679 -0.00286111
   1.85529 -0.0028788
   1.86332 -0.00289408
   1.87091 -0.00290688
   1.87808 -0.00291715
   1.88485 -0.0029248
   1.89125 -0.00292968
   1.89729 -0.00293163
     1.903 -0.00293052
    1.9084 -0.00292619
    1.9135 -0.0029184
   1.91831 -0.00290674
   1.92286 -0.00289078
   1.92716 -0.00287013
   1.93122 -0.00284441
   1.93506 -0.00281322
   1.93868 -0.00277623
   1.94211 -0.00273316
   1.94534 -0.00268383
    1.9484 -0.00262818
   1.95129 -0.00256625
   1.95401 -0.00249819
   1.95659 -0.00242429
   1.95903 -0.00234495
   1.96133 -0.00226067
    1.9635 -0.00217208
   1.96555 -0.00207985
   1.96749 -0.00198473
   1.96933 -0.00188748
   1.97106 -0.0017889
   1.97269 -0.00168978
   1.97424 -0.0015909
    1.9757 -0.00149299
   1.97708 -0.00139676
   1.97838 -0.00130284
   1.97961 -0.0012118
   1.98077 -0.00112414
   1.98187 -0.00104027
   1.98291 -0.000960524
   1.98389 -0.000885163
   1.98482 -0.000814359
   1.98569 -0.000748213
   1.98652 -0.00068676
    1.9873 -0.000629969
   1.98804 -0.000577759
   1.98874   -0.00053
    1.9894 -0.000486525
   1.99002 -0.00044714
   1.99061 -0.000411626
   1.99116 -0.000379749
   1.99169 -0.000351269
   1.99218 -0.000325939
   1.99265 -0.000303511
    1.9931 -0.000283411
   1.99355 -0.000265007
   1.99399 -0.000248134
   1.99444 -0.000232854
   1.99488 -0.00021922
   1.99533 -0.000207271
   1.99577 -0.000197024
   1.99622 -0.000188472
   1.99666 -0.000181575
   1.99711 -0.000176255
   1.99755 -0.000172386
     1.998 -0.000169795
   1.99844 -0.000168255
   1.99889 -0.000167497
   1.99933 -0.000167232
   1.99978 -0.000167209
         2 -0.000167209
