         0 0.000130785
 0.0002225 0.000130785
 0.0006675 0.000130723
 0.0011125 0.000130679
 0.0015575 0.000130674
 0.0020025 0.000130705
 0.0024475 0.00013077
 0.0028925 0.000130865
 0.0033375 0.00013099
 0.0037825 0.000131142
 0.0042275 0.00013132
 0.0046725 0.00013152
 0.0051175 0.000131742
 0.0055625 0.000131981
 0.0060075 0.000132237
 0.0064525 0.000132507
 0.0068975 0.000132788
 0.0073476 0.000133083
0.00781612 0.000133397
0.00831203 0.000133738
0.00883694 0.000134104
0.00939255 0.000134496
0.00998065 0.000134912
 0.0106031 0.00013535
  0.011262 0.00013581
 0.0119594 0.000136288
 0.0126977 0.00013678
  0.013479 0.000137283
 0.0143061 0.000137791
 0.0151815 0.000138299
 0.0161082 0.000138801
  0.017089 0.000139289
 0.0181271 0.000139756
  0.019226 0.000140195
 0.0203891 0.000140598
 0.0216203 0.000140957
 0.0229234 0.000141264
 0.0243028 0.000141513
 0.0257628 0.000141696
 0.0273082 0.000141807
  0.028944 0.000141841
 0.0306754 0.000141794
 0.0325081 0.000141664
 0.0344479 0.000141449
 0.0365012 0.00014115
 0.0386746 0.000140767
  0.040975 0.000140305
   0.04341 0.000139769
 0.0459873 0.000139162
 0.0487154 0.000138494
  0.051603 0.000137769
 0.0546595 0.000136998
 0.0578947 0.000136188
 0.0613191 0.000135347
 0.0649437 0.000134484
 0.0687803 0.000133606
 0.0728413 0.000132719
 0.0771397 0.000131827
 0.0816895 0.000130936
 0.0865054 0.000130048
 0.0916029 0.000129166
 0.0969985 0.000128293
   0.10271 0.000127436
  0.108755 0.000126594
  0.115153 0.000125766
  0.121926 0.00012495
  0.129095 0.000124141
  0.136683 0.000123333
  0.144715 0.000122525
  0.153216 0.00012172
  0.162214 0.000120923
  0.171739 0.000120135
  0.181821 0.000119355
  0.192492 0.000118584
  0.203788 0.000117821
  0.215744 0.000117066
  0.228399 0.000116306
  0.241794 0.000115545
  0.255972 0.000114785
   0.27098 0.000114027
  0.286865 0.000113264
  0.304824 0.000112474
  0.324407 0.000111634
  0.343989 0.00011088
  0.363571 0.000110179
  0.383154 0.000109511
  0.402736 0.000108864
  0.422319 0.000108231
  0.441901 0.000107611
  0.461484   0.000107
  0.481066 0.000106412
  0.500648 0.000105839
  0.520231 0.000105285
  0.539813 0.000104743
  0.559396 0.000104213
  0.578978 0.000103693
   0.59856 0.000103182
  0.618143 0.00010268
  0.637725 0.00010219
  0.657308 0.000101718
   0.67689 0.000101261
  0.696473 0.000100813
  0.716055 0.000100383
  0.735637 9.99773e-05
   0.75522 9.95964e-05
  0.774802 9.92375e-05
  0.794385 9.8903e-05
  0.813967 9.85936e-05
  0.833549 9.83081e-05
  0.853132 9.80503e-05
  0.872714 9.78201e-05
  0.892297 9.76183e-05
  0.911879 9.74449e-05
  0.931462 9.7301e-05
  0.951044 9.71892e-05
  0.970626 9.71146e-05
  0.990209 9.70779e-05
   1.00979 9.70761e-05
   1.02937 9.71097e-05
   1.04896 9.71818e-05
   1.06854 9.72892e-05
   1.08812 9.74269e-05
    1.1077 9.75966e-05
   1.12729 9.77994e-05
   1.14687 9.80343e-05
   1.16645 9.82995e-05
   1.18603 9.85942e-05
   1.20562 9.89201e-05
    1.2252 9.92784e-05
   1.24478 9.96603e-05
   1.26436 0.000100061
   1.28395 0.000100473
   1.30353 0.000100894
   1.32311 0.000101324
   1.34269 0.000101762
   1.36228 0.000102219
   1.38186  0.0001027
   1.40144 0.000103196
   1.42102 0.000103718
   1.44061 0.000104254
   1.46019 0.000104805
   1.47977 0.000105376
   1.49935 0.000105959
   1.51894 0.000106556
   1.53852 0.000107182
    1.5581 0.000107843
   1.57768 0.000108533
   1.59727 0.000109246
   1.61685 0.000109978
   1.63643 0.000110717
   1.65601 0.000111476
    1.6756 0.000112264
   1.69518 0.000113108
   1.71314 0.000113889
   1.72902 0.000114663
   1.74403 0.000115427
   1.75821 0.00011618
    1.7716 0.000116929
   1.78426 0.000117672
   1.79621 0.000118408
   1.80751 0.000119132
   1.81818 0.000119854
   1.82826 0.000120574
   1.83779  0.0001213
   1.84679 0.000122033
   1.85529 0.000122777
   1.86332 0.000123534
   1.87091 0.000124306
   1.87808 0.000125092
   1.88485 0.000125887
   1.89125 0.000126691
   1.89729 0.000127504
     1.903 0.000128328
    1.9084 0.000129163
    1.9135 0.00013001
   1.91831 0.000130866
   1.92286 0.000131727
   1.92716 0.00013259
   1.93122 0.00013345
   1.93506 0.000134302
   1.93868 0.000135137
   1.94211 0.000135949
   1.94534 0.000136731
    1.9484 0.000137474
   1.95129 0.000138171
   1.95401 0.000138813
   1.95659 0.000139394
   1.95903 0.000139907
   1.96133 0.000140346
    1.9635 0.000140709
   1.96555 0.000140992
   1.96749 0.000141193
   1.96933 0.000141312
   1.97106 0.00014135
   1.97269 0.000141309
   1.97424 0.000141194
    1.9757 0.000141008
   1.97708 0.000140758
   1.97838 0.00014045
   1.97961 0.000140091
   1.98077 0.000139688
   1.98187 0.000139251
   1.98291 0.000138786
   1.98389 0.000138301
   1.98482 0.000137803
   1.98569 0.000137299
   1.98652 0.000136795
    1.9873 0.000136298
   1.98804 0.000135811
   1.98874 0.000135339
    1.9894 0.000134886
   1.99002 0.000134453
   1.99061 0.000134043
   1.99116 0.000133657
   1.99169 0.000133297
   1.99218 0.000132963
   1.99265 0.000132653
    1.9931 0.000132364
   1.99355 0.000132088
   1.99399 0.000131824
   1.99444 0.000131574
   1.99488 0.000131339
   1.99533 0.000131123
   1.99577 0.000130927
   1.99622 0.000130754
   1.99666 0.000130605
   1.99711 0.000130484
   1.99755 0.000130391
     1.998 0.000130329
   1.99844 0.000130299
   1.99889 0.000130305
   1.99933 0.000130348
   1.99978 0.000130409
         2 0.000130409
