         0          0
 0.0002225  0.0108338
 0.0006675  0.0324899
 0.0011125  0.0541227
 0.0015575  0.0757076
 0.0020025  0.0972081
 0.0024475   0.118576
 0.0028925   0.139754
 0.0033375    0.16068
 0.0037825   0.181288
 0.0042275   0.201514
 0.0046725   0.221299
 0.0051175   0.240589
 0.0055625   0.259338
 0.0060075    0.27751
 0.0064525   0.295076
 0.0068975   0.312016
 0.0073476   0.328508
0.00781612   0.344984
0.00831203   0.361656
0.00883694   0.378453
0.00939255   0.395305
0.00998065   0.412139
 0.0106031   0.428884
  0.011262    0.44547
 0.0119594   0.461829
 0.0126977   0.477902
  0.013479   0.493633
 0.0143061   0.508972
 0.0151815    0.52388
 0.0161082   0.538321
  0.017089   0.552271
 0.0181271   0.565712
  0.019226   0.578632
 0.0203891   0.591028
 0.0216203   0.602906
 0.0229234   0.614276
 0.0243028   0.625156
 0.0257628   0.635568
 0.0273082   0.645539
  0.028944   0.655103
 0.0306754   0.664296
 0.0325081    0.67316
 0.0344479   0.681747
 0.0365012   0.690096
 0.0386746    0.69824
  0.040975   0.706206
   0.04341   0.714015
 0.0459873    0.72168
 0.0487154   0.729199
  0.051603   0.736562
 0.0546595   0.743779
 0.0578947    0.75087
 0.0613191   0.757859
 0.0649437   0.764777
 0.0687803   0.771662
 0.0728413   0.778552
 0.0771397   0.785468
 0.0816895   0.792435
 0.0865054   0.799435
 0.0916029   0.806381
 0.0969985   0.813239
   0.10271   0.820144
  0.108755   0.827254
  0.115153   0.834607
  0.121926   0.842122
  0.129095   0.849697
  0.136683   0.857397
  0.144715   0.865183
  0.153216    0.87292
  0.162214   0.880771
  0.171739   0.888823
  0.181821   0.896841
  0.192492    0.90445
  0.203788   0.911596
  0.215744   0.918893
  0.228399   0.926408
  0.241794   0.933973
  0.255972   0.941596
   0.27098   0.949014
  0.286865   0.956365
  0.304824   0.964727
  0.324407   0.973716
  0.343989   0.982461
  0.363571   0.990835
  0.383154   0.999222
  0.402736    1.00719
  0.422319    1.01434
  0.441901    1.02168
  0.461484    1.02859
  0.481066     1.0349
  0.500648    1.04179
  0.520231    1.04937
  0.539813    1.05654
  0.559396    1.06334
  0.578978    1.07005
   0.59856    1.07626
  0.618143    1.08208
  0.637725    1.08776
  0.657308     1.0928
   0.67689    1.09778
  0.696473    1.10254
  0.716055    1.10676
  0.735637    1.11038
   0.75522    1.11342
  0.774802    1.11613
  0.794385    1.11846
  0.813967    1.12068
  0.833549    1.12296
  0.853132    1.12531
  0.872714    1.12789
  0.892297    1.13037
  0.911879    1.13271
  0.931462    1.13483
  0.951044    1.13653
  0.970626    1.13786
  0.990209    1.13858
   1.00979    1.13873
   1.02937    1.13847
   1.04896    1.13794
   1.06854    1.13723
   1.08812    1.13621
    1.1077    1.13489
   1.12729    1.13327
   1.14687    1.13116
   1.16645    1.12851
   1.18603    1.12531
   1.20562    1.12179
    1.2252    1.11808
   1.24478    1.11419
   1.26436    1.11008
   1.28395    1.10573
   1.30353    1.10145
   1.32311    1.09716
   1.34269    1.09285
   1.36228    1.08837
   1.38186    1.08365
   1.40144     1.0788
   1.42102    1.07362
   1.44061    1.06754
   1.46019    1.06075
   1.47977     1.0539
   1.49935    1.04729
   1.51894     1.0404
   1.53852    1.03294
    1.5581    1.02562
   1.57768    1.01791
   1.59727    1.00947
   1.61685    1.00029
   1.63643   0.990675
   1.65601   0.980229
    1.6756   0.969181
   1.69518   0.958718
   1.71314   0.949024
   1.72902   0.939889
   1.74403   0.931361
   1.75821   0.923458
    1.7716   0.915581
   1.78426   0.907834
   1.79621   0.900293
   1.80751   0.892783
   1.81818   0.885564
   1.82826     0.8784
   1.83779   0.871264
   1.84679   0.864223
   1.85529    0.85701
   1.86332   0.849659
   1.87091   0.842358
   1.87808   0.835179
   1.88485   0.828096
   1.89125   0.821084
   1.89729   0.814189
     1.903   0.807289
    1.9084   0.800358
    1.9135   0.793475
   1.91831   0.786691
   1.92286    0.77993
   1.92716   0.773104
   1.93122   0.766171
   1.93506   0.759131
   1.93868   0.752041
   1.94211   0.744929
   1.94534     0.7378
    1.9484    0.73063
   1.95129    0.72338
   1.95401   0.716013
   1.95659   0.708491
   1.95903   0.700768
   1.96133    0.69281
    1.9635   0.684604
   1.96555    0.67614
   1.96749   0.667401
   1.96933    0.65836
   1.97106   0.648986
   1.97269   0.639243
   1.97424   0.629095
    1.9757   0.618509
   1.97708   0.607461
   1.97838   0.595939
   1.97961   0.583938
   1.98077   0.571456
   1.98187   0.558495
   1.98291   0.545059
   1.98389   0.531155
   1.98482   0.516796
   1.98569   0.501998
   1.98652    0.48679
    1.9873   0.471206
   1.98804   0.455289
   1.98874   0.439093
    1.9894   0.422678
   1.99002   0.406109
   1.99061   0.389457
   1.99116   0.372794
   1.99169   0.356193
   1.99218   0.339724
   1.99265   0.323456
    1.9931   0.307181
   1.99355   0.290471
   1.99399   0.273153
   1.99444   0.255246
   1.99488   0.236778
   1.99533   0.217783
   1.99577   0.198307
   1.99622     0.1784
   1.99666   0.158119
   1.99711   0.137528
   1.99755   0.116688
     1.998  0.0956613
   1.99844  0.0745034
   1.99889  0.0532618
   1.99933  0.0319732
   1.99978  0.0106615
         2          0
