         0          0
 0.0002225 -4.64594e-05
 0.0006675 -0.0001393
 0.0011125 -0.000231881
 0.0015575 -0.000323974
 0.0020025 -0.000415287
 0.0024475 -0.000505454
 0.0028925 -0.000594042
 0.0033375 -0.000680566
 0.0037825 -0.000764522
 0.0042275 -0.000845423
 0.0046725 -0.000922832
 0.0051175 -0.000996391
 0.0055625 -0.00106583
 0.0060075 -0.00113098
 0.0064525 -0.00119176
 0.0068975 -0.00124819
 0.0073476 -0.00130096
0.00781612 -0.00135152
0.00831203 -0.00140049
0.00883694 -0.00144775
0.00939255 -0.00149341
0.00998065 -0.00153782
 0.0106031 -0.00158161
  0.011262 -0.00162568
 0.0119594 -0.00167116
 0.0126977 -0.0017193
  0.013479 -0.00177138
 0.0143061 -0.00182853
 0.0151815 -0.00189162
 0.0161082 -0.00196101
  0.017089 -0.00203654
 0.0181271 -0.00211774
  0.019226 -0.00220412
 0.0203891 -0.00229552
 0.0216203 -0.00239218
 0.0229234 -0.00249432
 0.0243028 -0.00260173
 0.0257628 -0.00271445
 0.0273082 -0.00283339
  0.028944 -0.00295727
 0.0306754 -0.00307966
 0.0325081 -0.0031904
 0.0344479 -0.00327802
 0.0365012 -0.00333329
 0.0386746 -0.00335552
  0.040975 -0.00334904
   0.04341 -0.00331864
 0.0459873 -0.0032706
 0.0487154 -0.00321654
  0.051603 -0.00316841
 0.0546595 -0.00311575
 0.0578947 -0.00302982
 0.0613191 -0.00288931
 0.0649437 -0.00270547
 0.0687803 -0.00249958
 0.0728413 -0.00227721
 0.0771397 -0.00205357
 0.0816895 -0.00184083
 0.0865054 -0.00163725
 0.0916029 -0.00143804
 0.0969985 -0.00128111
   0.10271 -0.00120364
  0.108755 -0.00117893
  0.115153 -0.00114657
  0.121926 -0.000986694
  0.129095 -0.000710577
  0.136683 -0.000444435
  0.144715 -0.000201721
  0.153216 -8.91327e-05
  0.162214 -8.11475e-05
  0.171739 -0.000156891
  0.181821 -0.000298332
  0.192492 -0.000328388
  0.203788 -2.99649e-05
  0.215744 0.000441361
  0.228399 0.00101339
  0.241794  0.0014315
  0.255972 0.00160125
   0.27098 0.00172416
  0.286865 0.00178295
  0.304824 0.00182296
  0.324407 0.00229705
  0.343989 0.00314152
  0.363571 0.00328951
  0.383154 0.00280626
  0.402736  0.0024259
  0.422319 0.00227945
  0.441901 0.00199698
  0.461484 0.00218085
  0.481066 0.00258681
  0.500648 0.00284363
  0.520231 0.00221226
  0.539813 0.00159358
  0.559396  0.0013339
  0.578978 0.00132081
   0.59856 0.00137798
  0.618143 0.00126668
  0.637725 0.000717965
  0.657308 0.000212896
   0.67689 0.000225776
  0.696473 0.000405349
  0.716055 0.000433068
  0.735637 7.92904e-05
   0.75522 -0.000189441
  0.774802 -0.000255235
  0.794385 -0.000205519
  0.813967 -6.64496e-05
  0.833549 -1.91462e-05
  0.853132 0.000179595
  0.872714 0.000357784
  0.892297 0.000180827
  0.911879 -0.0002633
  0.931462 -0.000630412
  0.951044 -0.000691395
  0.970626 -0.000684818
  0.990209 -0.00053556
   1.00979 -0.000276896
   1.02937 -1.57843e-05
   1.04896 8.34804e-05
   1.06854 -0.000127773
   1.08812 -0.000464893
    1.1077 -0.000760212
   1.12729 -0.00109422
   1.14687 -0.00143606
   1.16645 -0.00181924
   1.18603 -0.0021004
   1.20562 -0.00211568
    1.2252 -0.00196153
   1.24478 -0.00176218
   1.26436 -0.00142876
   1.28395 -0.00106455
   1.30353 -0.000989624
   1.32311 -0.00123968
   1.34269 -0.00154568
   1.36228 -0.00193527
   1.38186 -0.0018589
   1.40144 -0.00115694
   1.42102 -0.000516763
   1.44061 -0.000394675
   1.46019 -0.000310749
   1.47977 -0.000653555
   1.49935 -0.00126366
   1.51894 -0.00198772
   1.53852 -0.00289668
    1.5581 -0.00289294
   1.57768 -0.00225404
   1.59727 -0.00190677
   1.61685 -0.00189657
   1.63643 -0.00176353
   1.65601 -0.00136824
    1.6756 -0.000939363
   1.69518 -0.000600897
   1.71314 -0.00090154
   1.72902 -0.00134646
   1.74403 -0.00163484
   1.75821 -0.00180187
    1.7716 -0.00206228
   1.78426 -0.00217355
   1.79621 -0.00194853
   1.80751 -0.00170714
   1.81818 -0.00151864
   1.82826 -0.00130223
   1.83779 -0.000967123
   1.84679 -0.000587758
   1.85529 -0.000443422
   1.86332 -0.000427459
   1.87091 -0.000452912
   1.87808 -0.000521317
   1.88485 -0.000562374
   1.89125 -0.000733519
   1.89729 -0.00098528
     1.903 -0.00115584
    1.9084 -0.00124207
    1.9135 -0.00126189
   1.91831 -0.00116839
   1.92286 -0.000953083
   1.92716 -0.000698184
   1.93122 -0.00046028
   1.93506 -0.000245434
   1.93868 -3.97548e-05
   1.94211 0.000159877
   1.94534 0.000324747
    1.9484 0.000449328
   1.95129 0.000547933
   1.95401 0.000626967
   1.95659 0.00068458
   1.95903 0.000724223
   1.96133 0.000758328
    1.9635 0.000797595
   1.96555  0.0008424
   1.96749 0.000886938
   1.96933 0.00092478
   1.97106 0.000951508
   1.97269 0.000964517
   1.97424 0.000962238
    1.9757 0.000944499
   1.97708 0.000913172
   1.97838 0.000872085
   1.97961 0.000825869
   1.98077 0.000778631
   1.98187 0.000733313
   1.98291 0.000691616
   1.98389 0.000654196
   1.98482 0.000620945
   1.98569 0.000591194
   1.98652 0.00056401
    1.9873 0.000538449
   1.98804 0.000513708
   1.98874 0.000489218
    1.9894 0.000464693
   1.99002 0.000440108
   1.99061 0.00041562
   1.99116 0.00039145
   1.99169 0.000367813
   1.99218 0.000344883
   1.99265 0.000322792
    1.9931 0.000301283
   1.99355 0.000279853
   1.99399 0.000258391
   1.99444 0.000237048
   1.99488 0.000215981
   1.99533 0.000195327
   1.99577 0.000175178
   1.99622 0.000155569
   1.99666 0.000136468
   1.99711 0.00011779
   1.99755 9.94215e-05
     1.998 8.12494e-05
   1.99844 6.31773e-05
   1.99889 4.51381e-05
   1.99933 2.70944e-05
   1.99978 9.03442e-06
         2          0
