         0          0
 0.0002225  0.0108338
 0.0006675  0.0324899
 0.0011125  0.0541226
 0.0015575  0.0757076
 0.0020025   0.097208
 0.0024475   0.118576
 0.0028925   0.139754
 0.0033375    0.16068
 0.0037825   0.181288
 0.0042275   0.201514
 0.0046725   0.221299
 0.0051175   0.240589
 0.0055625   0.259339
 0.0060075    0.27751
 0.0064525   0.295076
 0.0068975   0.312016
 0.0073476   0.328508
0.00781612   0.344984
0.00831203   0.361656
0.00883694   0.378453
0.00939255   0.395305
0.00998065    0.41214
 0.0106031   0.428884
  0.011262    0.44547
 0.0119594    0.46183
 0.0126977   0.477902
  0.013479   0.493633
 0.0143061   0.508972
 0.0151815    0.52388
 0.0161082   0.538321
  0.017089   0.552271
 0.0181271   0.565712
  0.019226   0.578632
 0.0203891   0.591028
 0.0216203   0.602906
 0.0229234   0.614277
 0.0243028   0.625157
 0.0257628   0.635569
 0.0273082    0.64554
  0.028944   0.655105
 0.0306754   0.664298
 0.0325081   0.673163
 0.0344479   0.681749
 0.0365012   0.690099
 0.0386746   0.698243
  0.040975   0.706209
   0.04341   0.714017
 0.0459873   0.721681
 0.0487154     0.7292
  0.051603   0.736564
 0.0546595    0.74378
 0.0578947   0.750871
 0.0613191   0.757861
 0.0649437   0.764779
 0.0687803   0.771663
 0.0728413   0.778553
 0.0771397   0.785469
 0.0816895   0.792435
 0.0865054   0.799433
 0.0916029    0.80638
 0.0969985   0.813238
   0.10271   0.820143
  0.108755   0.827254
  0.115153   0.834606
  0.121926   0.842122
  0.129095   0.849697
  0.136683   0.857397
  0.144715   0.865184
  0.153216   0.872921
  0.162214   0.880771
  0.171739   0.888823
  0.181821   0.896841
  0.192492   0.904452
  0.203788   0.911597
  0.215744   0.918893
  0.228399   0.926408
  0.241794   0.933973
  0.255972   0.941597
   0.27098   0.949015
  0.286865   0.956365
  0.304824   0.964725
  0.324407   0.973715
  0.343989    0.98246
  0.363571   0.990834
  0.383154   0.999222
  0.402736    1.00719
  0.422319    1.01434
  0.441901    1.02168
  0.461484    1.02859
  0.481066     1.0349
  0.500648    1.04178
  0.520231    1.04937
  0.539813    1.05654
  0.559396    1.06334
  0.578978    1.07005
   0.59856    1.07626
  0.618143    1.08208
  0.637725    1.08776
  0.657308     1.0928
   0.67689    1.09778
  0.696473    1.10254
  0.716055    1.10676
  0.735637    1.11038
   0.75522    1.11342
  0.774802    1.11614
  0.794385    1.11846
  0.813967    1.12068
  0.833549    1.12296
  0.853132    1.12531
  0.872714    1.12789
  0.892297    1.13037
  0.911879    1.13271
  0.931462    1.13483
  0.951044    1.13653
  0.970626    1.13786
  0.990209    1.13858
   1.00979    1.13873
   1.02937    1.13847
   1.04896    1.13794
   1.06854    1.13723
   1.08812    1.13621
    1.1077    1.13489
   1.12729    1.13327
   1.14687    1.13116
   1.16645    1.12851
   1.18603    1.12531
   1.20562    1.12179
    1.2252    1.11808
   1.24478    1.11419
   1.26436    1.11008
   1.28395    1.10573
   1.30353    1.10145
   1.32311    1.09716
   1.34269    1.09285
   1.36228    1.08837
   1.38186    1.08366
   1.40144    1.07881
   1.42102    1.07362
   1.44061    1.06754
   1.46019    1.06076
   1.47977     1.0539
   1.49935     1.0473
   1.51894     1.0404
   1.53852    1.03294
    1.5581    1.02562
   1.57768    1.01791
   1.59727    1.00947
   1.61685    1.00029
   1.63643   0.990673
   1.65601   0.980228
    1.6756   0.969179
   1.69518   0.958716
   1.71314   0.949022
   1.72902   0.939887
   1.74403    0.93136
   1.75821   0.923458
    1.7716    0.91558
   1.78426   0.907834
   1.79621   0.900293
   1.80751   0.892784
   1.81818   0.885565
   1.82826   0.878401
   1.83779   0.871266
   1.84679   0.864225
   1.85529   0.857011
   1.86332    0.84966
   1.87091   0.842359
   1.87808   0.835181
   1.88485   0.828097
   1.89125   0.821084
   1.89729   0.814188
     1.903   0.807288
    1.9084   0.800356
    1.9135   0.793473
   1.91831    0.78669
   1.92286    0.77993
   1.92716   0.773104
   1.93122   0.766172
   1.93506   0.759131
   1.93868   0.752042
   1.94211   0.744931
   1.94534   0.737801
    1.9484   0.730631
   1.95129    0.72338
   1.95401   0.716013
   1.95659   0.708492
   1.95903   0.700769
   1.96133   0.692811
    1.9635   0.684606
   1.96555   0.676142
   1.96749   0.667403
   1.96933   0.658362
   1.97106   0.648988
   1.97269   0.639245
   1.97424   0.629096
    1.9757    0.61851
   1.97708   0.607463
   1.97838   0.595941
   1.97961   0.583939
   1.98077   0.571457
   1.98187   0.558496
   1.98291    0.54506
   1.98389   0.531156
   1.98482   0.516796
   1.98569   0.501999
   1.98652   0.486791
    1.9873   0.471206
   1.98804    0.45529
   1.98874   0.439094
    1.9894   0.422678
   1.99002    0.40611
   1.99061   0.389458
   1.99116   0.372795
   1.99169   0.356194
   1.99218   0.339725
   1.99265   0.323457
    1.9931   0.307182
   1.99355   0.290472
   1.99399   0.273154
   1.99444   0.255247
   1.99488   0.236778
   1.99533   0.217784
   1.99577   0.198307
   1.99622     0.1784
   1.99666    0.15812
   1.99711   0.137528
   1.99755   0.116689
     1.998  0.0956617
   1.99844  0.0745037
   1.99889  0.0532621
   1.99933  0.0319733
   1.99978  0.0106615
         2          0
