         0          0
 0.0002225 -4.64404e-05
 0.0006675 -0.000139243
 0.0011125 -0.000231784
 0.0015575 -0.000323835
 0.0020025 -0.000415103
 0.0024475 -0.000505224
 0.0028925 -0.000593763
 0.0033375 -0.000680237
 0.0037825 -0.000764145
 0.0042275 -0.000845001
 0.0046725 -0.00092237
 0.0051175 -0.000995893
 0.0055625 -0.0010653
 0.0060075 -0.00113042
 0.0064525 -0.00119118
 0.0068975 -0.00124757
 0.0073476 -0.00130032
0.00781612 -0.00135085
0.00831203 -0.00139978
0.00883694 -0.00144702
0.00939255 -0.00149267
0.00998065 -0.00153707
 0.0106031 -0.00158085
  0.011262 -0.00162492
 0.0119594 -0.00167041
 0.0126977 -0.00171857
  0.013479 -0.00177067
 0.0143061 -0.00182784
 0.0151815 -0.00189095
 0.0161082 -0.00196037
  0.017089 -0.00203597
 0.0181271 -0.00211725
  0.019226 -0.00220376
 0.0203891 -0.00229533
 0.0216203 -0.00239221
 0.0229234 -0.0024946
 0.0243028 -0.00260224
 0.0257628 -0.00271519
 0.0273082 -0.00283433
  0.028944 -0.00295839
 0.0306754 -0.00308096
 0.0325081 -0.00319184
 0.0344479 -0.00327949
 0.0365012 -0.00333463
 0.0386746 -0.00335656
  0.040975 -0.00334966
   0.04341 -0.00331882
 0.0459873 -0.00327051
 0.0487154 -0.00321655
  0.051603 -0.00316889
 0.0546595 -0.0031168
 0.0578947 -0.00303134
 0.0613191 -0.00289096
 0.0649437 -0.00270663
 0.0687803 -0.0025001
 0.0728413 -0.00227746
 0.0771397 -0.00205339
 0.0816895 -0.00184022
 0.0865054 -0.00163689
 0.0916029 -0.00143831
 0.0969985 -0.00128176
   0.10271 -0.00120433
  0.108755 -0.00117963
  0.115153 -0.00114746
  0.121926 -0.000987781
  0.129095 -0.000711072
  0.136683 -0.000443864
  0.144715 -0.000200889
  0.153216 -8.88252e-05
  0.162214 -8.07647e-05
  0.171739 -0.00015599
  0.181821 -0.000298228
  0.192492 -0.000329241
  0.203788 -3.09812e-05
  0.215744 0.000441586
  0.228399 0.00101457
  0.241794 0.00143226
  0.255972 0.00160193
   0.27098 0.00172508
  0.286865 0.00178417
  0.304824 0.00182385
  0.324407 0.00229762
  0.343989 0.00314167
  0.363571 0.00328926
  0.383154 0.00280642
  0.402736 0.00242605
  0.422319 0.00227878
  0.441901 0.00199603
  0.461484 0.00218007
  0.481066 0.00258647
  0.500648 0.00284385
  0.520231  0.0022132
  0.539813  0.0015946
  0.559396 0.00133452
  0.578978 0.00132075
   0.59856 0.00137752
  0.618143  0.0012661
  0.637725 0.000717356
  0.657308 0.000212432
   0.67689 0.000225245
  0.696473 0.000404802
  0.716055 0.000432786
  0.735637 7.91098e-05
   0.75522 -0.000189563
  0.774802 -0.000255295
  0.794385 -0.000205593
  0.813967 -6.65979e-05
  0.833549 -1.96966e-05
  0.853132 0.000178887
  0.872714 0.000357647
  0.892297 0.000181333
  0.911879 -0.000262827
  0.931462 -0.000630089
  0.951044 -0.000691194
  0.970626 -0.000684663
  0.990209 -0.000535326
   1.00979 -0.000276731
   1.02937 -1.58784e-05
   1.04896 8.30665e-05
   1.06854 -0.000128178
   1.08812 -0.000464887
    1.1077 -0.000759643
   1.12729 -0.0010935
   1.14687 -0.00143569
   1.16645 -0.00181918
   1.18603 -0.00210029
   1.20562 -0.00211545
    1.2252 -0.00196127
   1.24478 -0.0017619
   1.26436 -0.00142882
   1.28395 -0.00106492
   1.30353 -0.000990178
   1.32311 -0.00124031
   1.34269 -0.00154613
   1.36228 -0.00193532
   1.38186 -0.00185858
   1.40144 -0.0011566
   1.42102 -0.000516521
   1.44061 -0.000394373
   1.46019 -0.000310555
   1.47977 -0.000653922
   1.49935 -0.00126445
   1.51894 -0.00198791
   1.53852 -0.00289648
    1.5581 -0.0028929
   1.57768 -0.00225431
   1.59727 -0.0019074
   1.61685 -0.00189749
   1.63643 -0.00176399
   1.65601 -0.0013678
    1.6756 -0.000938227
   1.69518 -0.000599992
   1.71314 -0.000901305
   1.72902 -0.00134615
   1.74403 -0.00163483
   1.75821 -0.00180218
    1.7716 -0.0020626
   1.78426 -0.00217367
   1.79621 -0.00194779
   1.80751 -0.00170659
   1.81818 -0.00151924
   1.82826 -0.00130314
   1.83779 -0.000967984
   1.84679 -0.000588881
   1.85529 -0.000444425
   1.86332 -0.000427916
   1.87091 -0.000453176
   1.87808 -0.000521211
   1.88485 -0.000561655
   1.89125 -0.000733002
   1.89729 -0.000985008
     1.903 -0.00115479
    1.9084 -0.00124015
    1.9135 -0.00125992
   1.91831 -0.0011666
   1.92286 -0.000951319
   1.92716 -0.000696621
   1.93122 -0.000459388
   1.93506 -0.000245435
   1.93868 -4.01947e-05
   1.94211 0.000159517
   1.94534 0.000324505
    1.9484 0.000448941
   1.95129 0.00054727
   1.95401 0.000626187
   1.95659 0.000683883
   1.95903 0.000723618
   1.96133 0.000757669
    1.9635 0.000796779
   1.96555 0.000841504
   1.96749 0.000886169
   1.96933 0.000924326
   1.97106 0.000951449
   1.97269 0.00096481
   1.97424 0.000962787
    1.9757 0.000945244
   1.97708 0.000914093
   1.97838 0.000873151
   1.97961 0.000827014
   1.98077 0.000779764
   1.98187 0.000734343
   1.98291 0.000692473
   1.98389 0.000654856
   1.98482 0.000621415
   1.98569 0.000591498
   1.98652 0.000564174
    1.9873 0.000538495
   1.98804 0.000513657
   1.98874 0.00048909
    1.9894 0.000464506
   1.99002 0.000439878
   1.99061 0.000415361
   1.99116 0.000391174
   1.99169 0.000367532
   1.99218 0.000344607
   1.99265 0.00032253
    1.9931 0.000301041
   1.99355 0.000279636
   1.99399 0.000258201
   1.99444 0.000236884
   1.99488 0.00021584
   1.99533 0.000195203
   1.99577 0.00017507
   1.99622 0.000155474
   1.99666 0.000136386
   1.99711 0.000117722
   1.99755 9.93675e-05
     1.998 8.12089e-05
   1.99844 6.31489e-05
   1.99889 4.51199e-05
   1.99933 2.70844e-05
   1.99978 9.03126e-06
         2          0
