         0          0
 0.0002225 -1.15598e-05
 0.0006675 -0.000222699
 0.0011125 -0.00100459
 0.0015575 -0.00271792
 0.0020025 -0.00563192
 0.0024475 -0.00986538
 0.0028925 -0.0153642
 0.0033375 -0.0219204
 0.0037825 -0.0292199
 0.0042275 -0.0369006
 0.0046725 -0.0446042
 0.0051175 -0.0520134
 0.0055625  -0.058874
 0.0060075  -0.065002
 0.0064525 -0.0702822
 0.0068975 -0.0746595
 0.0073476 -0.0781671
0.00781612 -0.0808746
0.00831203 -0.0827605
0.00883694 -0.0837728
0.00939255 -0.0838934
0.00998065 -0.0831386
 0.0106031 -0.0815569
  0.011262 -0.0792254
 0.0119594 -0.0762437
 0.0126977 -0.0727265
  0.013479 -0.0687961
 0.0143061 -0.0645755
 0.0151815 -0.0601816
 0.0161082 -0.0557209
  0.017089 -0.0512857
 0.0181271 -0.0469527
  0.019226 -0.0427821
 0.0203891 -0.0388179
 0.0216203 -0.0350898
 0.0229234  -0.031615
 0.0243028  -0.028401
 0.0257628 -0.0254473
 0.0273082 -0.0227483
  0.028944 -0.0202947
 0.0306754  -0.018075
 0.0325081 -0.0160742
 0.0344479 -0.0142753
 0.0365012 -0.0126611
 0.0386746 -0.0112157
  0.040975 -0.00992619
   0.04341 -0.00877994
 0.0459873 -0.00776239
 0.0487154 -0.00685878
  0.051603 -0.00605666
 0.0546595 -0.00534652
 0.0578947 -0.00471839
 0.0613191 -0.00415859
 0.0649437 -0.00365575
 0.0687803 -0.00320372
 0.0728413 -0.00279701
 0.0771397 -0.00243023
 0.0816895 -0.00209779
 0.0865054 -0.00179228
 0.0916029 -0.00150924
 0.0969985 -0.00124819
   0.10271 -0.00100749
  0.108755 -0.000787647
  0.115153 -0.000587189
  0.121926 -0.000396972
  0.129095 -0.000214026
  0.136683 -4.36832e-05
  0.144715  0.0001119
  0.153216 0.000258379
  0.162214 0.000393988
  0.171739 0.000521958
  0.181821 0.000640659
  0.192492 0.000756328
  0.203788 0.000870537
  0.215744 0.000974307
  0.228399 0.00107583
  0.241794 0.00116631
  0.255972 0.00126432
   0.27098 0.00134482
  0.286865 0.00143458
  0.304824 0.00153535
  0.324407 0.00161032
  0.343989 0.00168915
  0.363571 0.00175717
  0.383154 0.00182535
  0.402736 0.00187945
  0.422319 0.00193076
  0.441901 0.00198018
  0.461484  0.0020302
  0.481066 0.00207238
  0.500648 0.00211711
  0.520231 0.00215591
  0.539813 0.00219382
  0.559396 0.00222455
  0.578978 0.00225176
   0.59856 0.00228345
  0.618143  0.0023104
  0.637725 0.00233122
  0.657308  0.0023545
   0.67689 0.00238038
  0.696473 0.00240259
  0.716055 0.00242333
  0.735637 0.00244732
   0.75522 0.00247037
  0.774802 0.00249082
  0.794385 0.00251267
  0.813967 0.00252635
  0.833549 0.00254002
  0.853132 0.00254855
  0.872714 0.00255673
  0.892297 0.00256462
  0.911879 0.00256793
  0.931462 0.00257185
  0.951044  0.0025747
  0.970626  0.0025729
  0.990209 0.00257425
   1.00979 0.00257095
   1.02937 0.00257047
   1.04896 0.00256712
   1.06854 0.00256024
   1.08812  0.0025508
    1.1077 0.00254447
   1.12729 0.00253482
   1.14687 0.00252493
   1.16645 0.00251673
   1.18603  0.0024987
   1.20562 0.00248093
    1.2252 0.00246633
   1.24478 0.00245033
   1.26436 0.00243452
   1.28395 0.00241563
   1.30353 0.00239167
   1.32311  0.0023672
   1.34269 0.00234336
   1.36228 0.00231717
   1.38186 0.00228906
   1.40144 0.00226286
   1.42102 0.00222817
   1.44061 0.00219155
   1.46019 0.00216049
   1.47977 0.00212856
   1.49935 0.00208963
   1.51894 0.00204743
   1.53852 0.00200365
    1.5581 0.00195571
   1.57768 0.00191076
   1.59727 0.00185646
   1.61685 0.00180097
   1.63643  0.0017398
   1.65601 0.00168684
    1.6756 0.00161456
   1.69518  0.0015346
   1.71314  0.0014325
   1.72902   0.001349
   1.74403 0.00128216
   1.75821 0.00118727
    1.7716 0.00109646
   1.78426 0.000996999
   1.79621 0.000898894
   1.80751 0.000795163
   1.81818 0.000678719
   1.82826 0.000551613
   1.83779 0.000417105
   1.84679 0.000277592
   1.85529 0.000128258
   1.86332 -2.65171e-05
   1.87091 -0.000190777
   1.87808 -0.000366695
   1.88485 -0.000554256
   1.89125 -0.000757806
   1.89729 -0.000981296
     1.903 -0.00122118
    1.9084 -0.00147807
    1.9135 -0.00175247
   1.91831 -0.00205083
   1.92286 -0.00238232
   1.92716 -0.00274678
   1.93122 -0.00314775
   1.93506 -0.00358945
   1.93868 -0.00407939
   1.94211 -0.0046308
   1.94534 -0.00525598
    1.9484 -0.00596112
   1.95129 -0.00675311
   1.95401 -0.00764499
   1.95659   -0.00865
   1.95903 -0.00978061
   1.96133 -0.0110514
    1.9635 -0.0124785
   1.96555 -0.0140782
   1.96749 -0.0158646
   1.96933 -0.0178511
   1.97106 -0.0200516
   1.97269 -0.0224799
   1.97424  -0.025149
    1.9757 -0.0280693
   1.97708  -0.031247
   1.97838 -0.0346821
   1.97961 -0.0383664
   1.98077 -0.0422814
   1.98187 -0.0463958
   1.98291 -0.0506644
   1.98389 -0.0550263
   1.98482 -0.0594046
   1.98569 -0.0637072
   1.98652 -0.0678281
    1.9873 -0.0716517
   1.98804 -0.0750568
   1.98874 -0.0779239
    1.9894 -0.0801416
   1.99002 -0.0816143
   1.99061 -0.0822693
   1.99116 -0.0820622
   1.99169 -0.0809806
   1.99218 -0.0790462
   1.99265 -0.0763131
    1.9931 -0.0728045
   1.99355 -0.0684535
   1.99399 -0.0632313
   1.99444 -0.0571957
   1.99488 -0.0504634
   1.99533 -0.0432167
   1.99577 -0.0357048
   1.99622 -0.0282359
   1.99666 -0.0211559
   1.99711 -0.0148114
   1.99755 -0.00950088
     1.998 -0.0054193
   1.99844 -0.00261361
   1.99889 -0.000965573
   1.99933 -0.000213975
   1.99978 -1.11031e-05
         2          0
