         0          0
 0.0002225 -0.000541253
 0.0006675 -0.00129325
 0.0011125 -0.00178598
 0.0015575 -0.00209065
 0.0020025 -0.0022585
 0.0024475 -0.00232816
 0.0028925 -0.00232958
 0.0033375 -0.00228475
 0.0037825 -0.00220918
 0.0042275 -0.00211365
 0.0046725 -0.00200555
 0.0051175 -0.00188985
 0.0055625 -0.00176985
 0.0060075 -0.00164768
 0.0064525 -0.00152462
 0.0068975 -0.00140124
 0.0073476 -0.00127657
0.00781612 -0.00114814
0.00831203 -0.0010148
0.00883694 -0.000876949
0.00939255 -0.000735387
0.00998065 -0.000591363
 0.0106031 -0.000446496
  0.011262 -0.000302715
 0.0119594 -0.000162206
 0.0126977 -2.73297e-05
  0.013479 9.94964e-05
 0.0143061 0.00021593
 0.0151815 0.00031984
 0.0161082 0.000409444
  0.017089 0.000483422
 0.0181271 0.000540998
  0.019226 0.000581971
 0.0203891 0.00060669
 0.0216203 0.000616007
 0.0229234 0.00061122
 0.0243028 0.000593993
 0.0257628 0.000566272
 0.0273082 0.000530232
  0.028944 0.000488198
 0.0306754 0.000442454
 0.0325081 0.000395016
 0.0344479 0.000347574
 0.0365012 0.000301562
 0.0386746 0.000258258
  0.040975 0.000218802
   0.04341 0.000184098
 0.0459873 0.000154811
 0.0487154 0.000131337
  0.051603 0.000113557
 0.0546595 0.000100905
 0.0578947 9.27137e-05
 0.0613191 8.81419e-05
 0.0649437 8.60533e-05
 0.0687803 8.56681e-05
 0.0728413 8.6301e-05
 0.0771397 8.72719e-05
 0.0816895 8.82987e-05
 0.0865054 8.89716e-05
 0.0916029 8.89212e-05
 0.0969985 8.80293e-05
   0.10271 8.65862e-05
  0.108755 8.45129e-05
  0.115153 8.24227e-05
  0.121926 8.00125e-05
  0.129095 7.69296e-05
  0.136683 7.35895e-05
  0.144715 6.99152e-05
  0.153216 6.63127e-05
  0.162214 6.36043e-05
  0.171739 6.09717e-05
  0.181821 5.89717e-05
  0.192492 5.68413e-05
  0.203788 5.59813e-05
  0.215744 5.5729e-05
  0.228399  5.449e-05
  0.241794 5.07339e-05
  0.255972 4.59655e-05
   0.27098 3.90601e-05
  0.286865 4.06346e-05
  0.304824 5.71176e-05
  0.324407 3.59683e-05
  0.343989 2.62773e-05
  0.363571 2.39757e-05
  0.383154 2.29789e-05
  0.402736 2.16656e-05
  0.422319 2.12953e-05
  0.441901 2.18201e-05
  0.461484 2.28544e-05
  0.481066 2.41408e-05
  0.500648 2.34484e-05
  0.520231 2.25618e-05
  0.539813 2.17765e-05
  0.559396 2.06059e-05
  0.578978 2.11062e-05
   0.59856 2.26221e-05
  0.618143 2.48542e-05
  0.637725 2.56628e-05
  0.657308 2.61801e-05
   0.67689 2.63022e-05
  0.696473 2.6184e-05
  0.716055 2.53108e-05
  0.735637 2.47026e-05
   0.75522 2.38796e-05
  0.774802 2.36207e-05
  0.794385 2.27789e-05
  0.813967 2.17319e-05
  0.833549 2.03273e-05
  0.853132 1.97073e-05
  0.872714 1.94942e-05
  0.892297 1.91716e-05
  0.911879 1.8985e-05
  0.931462 1.87385e-05
  0.951044 1.83681e-05
  0.970626 1.84352e-05
  0.990209 1.86269e-05
   1.00979 1.92261e-05
   1.02937 1.99039e-05
   1.04896 1.9937e-05
   1.06854 1.95778e-05
   1.08812 1.96929e-05
    1.1077 1.9933e-05
   1.12729 1.97357e-05
   1.14687 1.99074e-05
   1.16645 2.06497e-05
   1.18603 2.2096e-05
   1.20562 2.27785e-05
    1.2252 2.42606e-05
   1.24478  2.558e-05
   1.26436 2.5306e-05
   1.28395 2.46501e-05
   1.30353 2.36051e-05
   1.32311 2.2048e-05
   1.34269 2.19454e-05
   1.36228 2.25327e-05
   1.38186 2.3021e-05
   1.40144 2.33396e-05
   1.42102 2.41516e-05
   1.44061 2.46186e-05
   1.46019 2.37371e-05
   1.47977 2.31934e-05
   1.49935 2.41096e-05
   1.51894 2.46274e-05
   1.53852 2.46881e-05
    1.5581 2.46244e-05
   1.57768 2.49924e-05
   1.59727  2.554e-05
   1.61685 2.33888e-05
   1.63643 2.46689e-05
   1.65601 2.47598e-05
    1.6756 3.14919e-05
   1.69518 5.37686e-05
   1.71314 3.77642e-05
   1.72902 3.61184e-05
   1.74403 4.11707e-05
   1.75821 4.36507e-05
    1.7716 4.5812e-05
   1.78426 4.77924e-05
   1.79621 5.1075e-05
   1.80751 5.43604e-05
   1.81818 5.73276e-05
   1.82826 5.90833e-05
   1.83779 6.19816e-05
   1.84679 6.61264e-05
   1.85529 6.92501e-05
   1.86332 7.19365e-05
   1.87091 7.50053e-05
   1.87808 7.83688e-05
   1.88485 8.18258e-05
   1.89125 8.50372e-05
   1.89729 8.82376e-05
     1.903 9.17521e-05
    1.9084 9.45701e-05
    1.9135 9.58791e-05
   1.91831 9.56968e-05
   1.92286 9.46965e-05
   1.92716 9.39345e-05
   1.93122 9.35426e-05
   1.93506 9.36796e-05
   1.93868 9.53988e-05
   1.94211 9.97994e-05
   1.94534 0.000107912
    1.9484 0.000120458
   1.95129 0.000137735
   1.95401 0.00015995
   1.95659 0.000187418
   1.95903 0.000220289
   1.96133 0.000258149
    1.9635 0.000300061
   1.96555 0.000344865
   1.96749 0.000391169
   1.96933 0.000437312
   1.97106 0.000481404
   1.97269 0.000521358
   1.97424 0.000555016
    1.9757 0.000580204
   1.97708 0.000594846
   1.97838 0.000597116
   1.97961 0.000585492
   1.98077 0.00055881
   1.98187 0.000516312
   1.98291 0.00045772
   1.98389 0.000383283
   1.98482 0.000293793
   1.98569 0.000190555
   1.98652 7.53113e-05
    1.9873 -4.98688e-05
   1.98804 -0.000182715
   1.98874 -0.000320888
    1.9894 -0.00046211
   1.99002 -0.00060427
   1.99061 -0.000745506
   1.99116 -0.000884256
   1.99169 -0.00101931
   1.99218 -0.0011499
   1.99265 -0.00127562
    1.9931 -0.00139761
   1.99355 -0.00151828
   1.99399 -0.00163855
   1.99444 -0.00175783
   1.99488 -0.00187484
   1.99533 -0.00198743
   1.99577 -0.00209233
   1.99622 -0.00218461
   1.99666 -0.00225698
   1.99711 -0.00229883
   1.99755 -0.00229496
     1.998 -0.00222385
   1.99844 -0.00205627
   1.99889 -0.00175458
   1.99933 -0.00126898
   1.99978 -0.000530334
         2          0
