         0          0
 0.0002225   -11.5693
 0.0006675   -31.9133
 0.0011125   -58.5107
 0.0015575   -100.028
 0.0020025   -162.873
 0.0024475   -250.191
 0.0028925   -361.469
 0.0033375   -492.949
 0.0037825    -638.62
 0.0042275   -791.425
 0.0046725   -944.317
 0.0051175   -1091.04
 0.0055625   -1226.57
 0.0060075   -1347.27
 0.0064525   -1450.88
 0.0068975   -1536.32
 0.0073476   -1604.24
0.00781612   -1656.03
0.00831203   -1691.22
0.00883694   -1708.81
0.00939255   -1708.47
0.00998065   -1690.57
 0.0106031   -1656.12
  0.011262   -1606.74
 0.0119594   -1544.46
 0.0126977   -1471.66
  0.013479   -1390.85
 0.0143061   -1304.52
 0.0151815   -1215.09
 0.0161082    -1124.7
  0.017089   -1035.24
 0.0181271   -948.248
  0.019226   -864.922
 0.0203891   -786.128
 0.0216203   -712.427
 0.0229234   -644.129
 0.0243028   -581.334
 0.0257628   -523.983
 0.0273082   -471.905
  0.028944   -424.861
 0.0306754   -382.553
 0.0325081   -344.625
 0.0344479    -310.69
 0.0365012    -280.36
 0.0386746   -253.287
  0.040975   -229.183
   0.04341    -207.77
 0.0459873   -188.739
 0.0487154    -171.79
  0.051603   -156.679
 0.0546595   -143.225
 0.0578947   -131.242
 0.0613191   -120.484
 0.0649437   -110.765
 0.0687803   -101.989
 0.0728413   -94.0658
 0.0771397   -86.9108
 0.0816895   -80.4263
 0.0865054   -74.4761
 0.0916029   -68.9868
 0.0969985   -63.9552
   0.10271   -59.3462
  0.108755   -55.1716
  0.115153   -51.3983
  0.121926   -47.8675
  0.129095   -44.5119
  0.136683   -41.3991
  0.144715   -38.6028
  0.153216   -36.0354
  0.162214   -33.6757
  0.171739   -31.4532
  0.181821    -29.405
  0.192492   -27.4555
  0.203788   -25.5342
  0.215744   -23.8231
  0.228399   -22.1891
  0.241794   -20.8309
  0.255972   -19.3611
   0.27098   -18.3321
  0.286865   -16.9201
  0.304824   -14.9796
  0.324407   -14.4076
  0.343989   -13.5354
  0.363571   -12.7016
  0.383154   -11.7894
  0.402736   -11.1425
  0.422319   -10.5301
  0.441901   -9.90973
  0.461484   -9.26069
  0.481066   -8.77084
  0.500648   -8.22844
  0.520231   -7.76318
  0.539813   -7.30871
  0.559396   -6.97943
  0.578978   -6.65514
   0.59856    -6.2142
  0.618143   -5.85199
  0.637725   -5.63541
  0.657308   -5.38738
   0.67689   -5.09549
  0.696473   -4.87267
  0.716055   -4.69542
  0.735637   -4.46822
   0.75522   -4.26257
  0.774802   -4.08517
  0.794385   -3.89122
  0.813967   -3.82834
  0.833549   -3.73245
  0.853132   -3.69209
  0.872714   -3.61369
  0.892297    -3.5113
  0.911879   -3.47125
  0.931462   -3.41872
  0.951044   -3.37189
  0.970626   -3.38568
  0.990209   -3.34536
   1.00979   -3.38149
   1.02937   -3.34062
   1.04896   -3.35433
   1.06854   -3.42525
   1.08812    -3.5135
    1.1077   -3.52259
   1.12729   -3.59102
   1.14687   -3.62936
   1.16645   -3.62876
   1.18603    -3.8157
   1.20562   -4.00426
    1.2252    -4.1169
   1.24478   -4.26372
   1.26436   -4.41884
   1.28395   -4.59174
   1.30353   -4.83111
   1.32311   -5.09898
   1.34269   -5.30045
   1.36228   -5.52172
   1.38186   -5.79571
   1.40144   -6.04775
   1.42102   -6.46871
   1.44061   -6.94069
   1.46019   -7.32664
   1.47977   -7.70718
   1.49935   -8.17703
   1.51894   -8.71678
   1.53852   -9.29892
    1.5581   -9.95477
   1.57768   -10.5553
   1.59727   -11.3175
   1.61685   -12.1566
   1.63643    -13.023
   1.65601   -13.7531
    1.6756   -14.6943
   1.69518   -15.3946
   1.71314   -17.3979
   1.72902   -18.7759
   1.74403   -19.6401
   1.75821   -21.1277
    1.7716   -22.5481
   1.78426   -24.1191
   1.79621   -25.6334
   1.80751    -27.282
   1.81818   -29.1938
   1.82826   -31.3509
   1.83779   -33.6637
   1.84679   -36.0828
   1.85529    -38.722
   1.86332   -41.4828
   1.87091   -44.4405
   1.87808   -47.6344
   1.88485   -51.0664
   1.89125   -54.8343
   1.89729   -59.0216
     1.903   -63.5532
    1.9084   -68.4503
    1.9135   -73.7289
   1.91831   -79.5057
   1.92286   -85.9492
   1.92716   -93.0404
   1.93122   -100.844
   1.93506   -109.421
   1.93868   -118.887
   1.94211   -129.472
   1.94534    -141.39
    1.9484   -154.748
   1.95129   -169.673
   1.95401   -186.417
   1.95659   -205.235
   1.95903   -226.375
   1.96133   -250.141
    1.9635   -276.881
   1.96555   -306.954
   1.96749    -340.68
   1.96933   -378.371
   1.97106   -420.356
   1.97269   -466.964
   1.97424   -518.508
    1.9757   -575.259
   1.97708   -637.396
   1.97838   -704.969
   1.97961   -777.859
   1.98077   -855.728
   1.98187   -937.979
   1.98291   -1023.72
   1.98389   -1111.73
   1.98482   -1200.47
   1.98569   -1288.06
   1.98652   -1372.36
    1.9873   -1450.99
   1.98804   -1521.49
   1.98874    -1581.4
    1.9894   -1628.43
   1.99002   -1660.62
   1.99061   -1676.44
   1.99116   -1674.96
   1.99169   -1655.89
   1.99218   -1619.63
   1.99265   -1567.25
    1.9931   -1499.22
   1.99355   -1414.22
   1.99399   -1311.69
   1.99444   -1192.75
   1.99488    -1059.7
   1.99533   -916.148
   1.99577   -767.013
   1.99622   -618.376
   1.99666   -477.031
   1.99711   -349.733
   1.99755   -242.181
     1.998   -157.883
   1.99844   -97.2211
   1.99889     -57.08
   1.99933   -31.2401
   1.99978   -11.3376
         2          0
