         0          0
 0.0002225 8.25663e-06
 0.0006675 6.44652e-05
 0.0011125 0.000160449
 0.0015575 0.000283725
 0.0020025 0.000424786
 0.0024475 0.000576452
 0.0028925 0.000733414
 0.0033375 0.000891866
 0.0037825 0.00104919
 0.0042275 0.00120366
 0.0046725 0.00135425
 0.0051175 0.00150037
 0.0055625 0.00164178
 0.0060075 0.00177843
 0.0064525 0.00191037
 0.0068975 0.00203773
 0.0073476 0.00216219
0.00781612 0.00228731
0.00831203 0.00241482
0.00883694 0.00254447
0.00939255 0.00267593
0.00998065 0.00280883
 0.0106031  0.0029427
  0.011262 0.00307701
 0.0119594 0.00321113
 0.0126977  0.0033444
  0.013479 0.00347608
 0.0143061 0.00360543
 0.0151815 0.00373168
 0.0161082 0.00385411
  0.017089 0.00397203
 0.0181271 0.00408483
  0.019226 0.00419198
 0.0203891 0.00429306
 0.0216203 0.00438775
 0.0229234 0.00447583
 0.0243028 0.00455719
 0.0257628 0.00463176
 0.0273082 0.00469953
  0.028944 0.00476051
 0.0306754 0.00481473
 0.0325081 0.00486217
 0.0344479 0.00490278
 0.0365012 0.00493655
 0.0386746 0.00496344
  0.040975 0.00498343
   0.04341  0.0049965
 0.0459873 0.00500268
 0.0487154 0.00500211
  0.051603 0.00499493
 0.0546595 0.00498118
 0.0578947 0.00496089
 0.0613191 0.00493429
 0.0649437 0.00490187
 0.0687803 0.00486416
 0.0728413 0.00482155
 0.0771397 0.00477446
 0.0816895 0.00472335
 0.0865054 0.00466875
 0.0916029 0.00461132
 0.0969985 0.00455153
   0.10271 0.00449008
  0.108755 0.00442744
  0.115153 0.00436395
  0.121926 0.00430032
  0.129095 0.00423732
  0.136683 0.00417519
  0.144715 0.00411295
  0.153216 0.00404956
  0.162214 0.00398531
  0.171739 0.00392025
  0.181821 0.00385459
  0.192492 0.00378709
  0.203788 0.00371958
  0.215744  0.0036515
  0.228399 0.00358461
  0.241794 0.00351835
  0.255972  0.0034483
   0.27098 0.00337806
  0.286865 0.00330229
  0.304824 0.00322459
  0.324407 0.00313491
  0.343989 0.00305031
  0.363571 0.00296585
  0.383154 0.00288246
  0.402736 0.00279821
  0.422319 0.00271578
  0.441901 0.00263483
  0.461484 0.00255186
  0.481066 0.00246537
  0.500648 0.00237866
  0.520231 0.00229505
  0.539813 0.00221627
  0.559396 0.00214105
  0.578978 0.00206574
   0.59856 0.00198883
  0.618143 0.00191177
  0.637725 0.00183699
  0.657308 0.00176462
   0.67689 0.00169229
  0.696473  0.0016209
  0.716055 0.00155312
  0.735637  0.0014874
   0.75522  0.0014238
  0.774802 0.00136528
  0.794385 0.00131026
  0.813967 0.00126005
  0.833549 0.00121351
  0.853132 0.00117186
  0.872714 0.00113502
  0.892297 0.00110219
  0.911879 0.00107422
  0.931462 0.00105195
  0.951044 0.00103399
  0.970626 0.00102139
  0.990209 0.00101481
   1.00979 0.00101456
   1.02937 0.00102003
   1.04896 0.00103133
   1.06854 0.00104849
   1.08812 0.00107118
    1.1077 0.00109827
   1.12729 0.00112961
   1.14687 0.00116671
   1.16645 0.00120927
   1.18603 0.00125617
   1.20562 0.00130657
    1.2252 0.00135991
   1.24478 0.00141545
   1.26436  0.0014734
   1.28395 0.00153478
   1.30353 0.00159969
   1.32311 0.00166826
   1.34269 0.00173982
   1.36228 0.00181466
   1.38186 0.00189148
   1.40144 0.00197004
   1.42102 0.00205018
   1.44061 0.00213088
   1.46019 0.00221255
   1.47977 0.00229636
   1.49935 0.00238222
   1.51894 0.00247098
   1.53852 0.00255905
    1.5581 0.00264728
   1.57768 0.00273866
   1.59727 0.00283075
   1.61685 0.00292199
   1.63643  0.0030146
   1.65601 0.00310679
    1.6756 0.00319594
   1.69518 0.00329231
   1.71314 0.00337098
   1.72902 0.00344266
   1.74403 0.00350894
   1.75821 0.00357638
    1.7716  0.0036455
   1.78426 0.00371376
   1.79621 0.00377872
   1.80751 0.00384017
   1.81818 0.00389868
   1.82826 0.00395638
   1.83779 0.00401457
   1.84679 0.00407357
   1.85529 0.00413329
   1.86332 0.00419395
   1.87091 0.00425485
   1.87808 0.00431526
   1.88485 0.00437524
   1.89125 0.00443543
   1.89729 0.00449573
     1.903 0.00455516
    1.9084 0.00461258
    1.9135 0.00466755
   1.91831 0.00471977
   1.92286  0.0047689
   1.92716 0.00481416
   1.93122 0.00485483
   1.93506 0.00489046
   1.93868 0.00492067
   1.94211 0.00494513
   1.94534 0.00496364
    1.9484 0.00497595
   1.95129  0.0049818
   1.95401 0.00498097
   1.95659 0.00497339
   1.95903   0.004959
   1.96133 0.00493773
    1.9635 0.00490956
   1.96555 0.00487452
   1.96749 0.00483271
   1.96933 0.00478419
   1.97106 0.00472899
   1.97269  0.0046671
   1.97424 0.00459851
    1.9757 0.00452322
   1.97708 0.00444129
   1.97838 0.00435279
   1.97961 0.00425786
   1.98077 0.00415672
   1.98187 0.00404966
   1.98291 0.00393709
   1.98389  0.0038195
   1.98482 0.00369749
   1.98569 0.00357174
   1.98652 0.00344298
    1.9873 0.00331197
   1.98804 0.00317945
   1.98874 0.00304615
    1.9894 0.00291275
   1.99002 0.00277985
   1.99061 0.00264799
   1.99116 0.00251761
   1.99169 0.00238908
   1.99218  0.0022627
   1.99265 0.00213872
    1.9931 0.00201542
   1.99355 0.00188924
   1.99399 0.00175854
   1.99444  0.0016232
   1.99488 0.00148315
   1.99533 0.00133845
   1.99577 0.00118936
   1.99622 0.00103645
   1.99666 0.000880779
   1.99711 0.000724054
   1.99755 0.000568883
     1.998 0.000419037
   1.99844 0.000279761
   1.99889 0.00015813
   1.99933 6.3499e-05
   1.99978 8.12685e-06
         2          0
