         0          0
 0.0002225 5.01385e-10
 0.0006675 4.84816e-08
 0.0011125 3.27624e-07
 0.0015575 1.12137e-06
 0.0020025 2.7237e-06
 0.0024475 5.40164e-06
 0.0028925 9.3815e-06
 0.0033375 1.48403e-05
 0.0037825 2.19041e-05
 0.0042275 3.06521e-05
 0.0046725 4.11233e-05
 0.0051175 5.33244e-05
 0.0055625 6.72358e-05
 0.0060075 8.28184e-05
 0.0064525 0.000100018
 0.0068975 0.000118771
 0.0073476 0.000139252
0.00781612 0.000162116
0.00831203 0.000187934
0.00883694 0.000216954
0.00939255 0.000249425
0.00998065 0.000285592
 0.0106031 0.000325688
  0.011262 0.000369933
 0.0119594 0.000418523
 0.0126977 0.000471623
  0.013479 0.00052936
 0.0143061 0.000591814
 0.0151815 0.000659008
 0.0161082 0.000730903
  0.017089 0.000807391
 0.0181271 0.000888286
  0.019226 0.000973324
 0.0203891 0.00106216
 0.0216203 0.00115437
 0.0229234 0.00124943
 0.0243028 0.00134677
 0.0257628 0.00144573
 0.0273082  0.0015456
  0.028944  0.0016456
 0.0306754 0.00174494
 0.0325081  0.0018428
 0.0344479 0.00193837
 0.0365012 0.00203086
 0.0386746 0.00211955
  0.040975 0.00220377
   0.04341 0.00228294
 0.0459873 0.00235655
 0.0487154 0.00242424
  0.051603 0.00248573
 0.0546595 0.00254088
 0.0578947 0.00258967
 0.0613191 0.00263222
 0.0649437 0.00266874
 0.0687803 0.00269952
 0.0728413  0.0027249
 0.0771397 0.00274525
 0.0816895 0.00276093
 0.0865054  0.0027723
 0.0916029 0.00277971
 0.0969985 0.00278353
   0.10271 0.00278413
  0.108755 0.00278195
  0.115153 0.00277727
  0.121926 0.00277021
  0.129095 0.00276072
  0.136683 0.00274868
  0.144715  0.0027342
  0.153216 0.00271757
  0.162214   0.002699
  0.171739 0.00267867
  0.181821 0.00265678
  0.192492 0.00263314
  0.203788 0.00260772
  0.215744  0.0025803
  0.228399 0.00255126
  0.241794 0.00251999
  0.255972 0.00248685
   0.27098 0.00245176
  0.286865 0.00241453
  0.304824 0.00237253
  0.324407 0.00232388
  0.343989 0.00227555
  0.363571 0.00222716
  0.383154 0.00217869
  0.402736 0.00212912
  0.422319  0.0020789
  0.441901 0.00202951
  0.461484 0.00197917
  0.481066 0.00192854
  0.500648 0.00187767
  0.520231  0.0018266
  0.539813 0.00177565
  0.559396 0.00172464
  0.578978 0.00167429
   0.59856 0.00162481
  0.618143 0.00157559
  0.637725 0.00152753
  0.657308 0.00148099
   0.67689 0.00143609
  0.696473 0.00139234
  0.716055 0.00135011
  0.735637 0.00131052
   0.75522 0.00127322
  0.774802 0.00123782
  0.794385  0.0012046
  0.813967 0.00117378
  0.833549 0.00114504
  0.853132 0.00111928
  0.872714 0.00109665
  0.892297  0.0010773
  0.911879 0.00106078
  0.931462 0.00104771
  0.951044 0.00103782
  0.970626 0.00103126
  0.990209 0.00102777
   1.00979 0.00102718
   1.02937  0.0010295
   1.04896 0.00103518
   1.06854 0.00104363
   1.08812 0.00105468
    1.1077 0.00106847
   1.12729 0.00108582
   1.14687 0.00110628
   1.16645  0.0011303
   1.18603 0.00115738
   1.20562 0.00118804
    1.2252 0.00122131
   1.24478 0.00125715
   1.26436   0.001295
   1.28395 0.00133435
   1.30353 0.00137488
   1.32311 0.00141699
   1.34269 0.00146042
   1.36228 0.00150623
   1.38186  0.0015538
   1.40144 0.00160263
   1.42102 0.00165259
   1.44061 0.00170341
   1.46019 0.00175543
   1.47977 0.00180813
   1.49935 0.00186083
   1.51894 0.00191398
   1.53852 0.00196748
    1.5581 0.00202093
   1.57768 0.00207467
   1.59727 0.00212804
   1.61685 0.00218047
   1.63643  0.0022325
   1.65601 0.00228557
    1.6756 0.00233784
   1.69518  0.0023881
   1.71314 0.00243129
   1.72902 0.00247031
   1.74403 0.00250765
   1.75821 0.00254342
    1.7716  0.0025769
   1.78426 0.00260739
   1.79621  0.0026355
   1.80751 0.00266113
   1.81818 0.00268404
   1.82826 0.00270443
   1.83779 0.00272294
   1.84679  0.0027397
   1.85529  0.0027544
   1.86332 0.00276695
   1.87091  0.0027772
   1.87808 0.00278514
   1.88485 0.00279062
   1.89125 0.00279348
   1.89729 0.00279355
     1.903 0.00279069
    1.9084 0.00278471
    1.9135 0.00277537
   1.91831 0.00276222
   1.92286 0.00274486
   1.92716 0.00272287
   1.93122 0.00269587
   1.93506 0.00266346
   1.93868  0.0026253
   1.94211 0.00258111
   1.94534 0.00253071
    1.9484 0.00247404
   1.95129 0.00241114
   1.95401 0.00234215
   1.95659 0.00226738
   1.95903 0.00218721
   1.96133 0.00210216
    1.9635 0.00201283
   1.96555 0.00191991
   1.96749 0.00182414
   1.96933  0.0017263
   1.97106 0.00162717
   1.97269 0.00152753
   1.97424 0.00142817
    1.9757 0.00132982
   1.97708 0.00123318
   1.97838 0.00113888
   1.97961  0.0010475
   1.98077 0.000959516
   1.98187 0.000875355
   1.98291 0.000795346
   1.98389 0.000719743
   1.98482 0.00064872
   1.98569 0.000582377
   1.98652 0.000520747
    1.9873 0.000463799
   1.98804 0.00041145
   1.98874 0.000363569
    1.9894 0.000319987
   1.99002 0.000280509
   1.99061 0.000244914
   1.99116 0.000212967
   1.99169 0.000184427
   1.99218 0.000159045
   1.99265 0.000136575
    1.9931 0.000116454
   1.99355 9.80371e-05
   1.99399 8.11521e-05
   1.99444 6.58609e-05
   1.99488 5.22154e-05
   1.99533 4.0253e-05
   1.99577 2.99914e-05
   1.99622 2.1423e-05
   1.99666 1.45078e-05
   1.99711 9.16693e-06
   1.99755 5.27538e-06
     1.998 2.65853e-06
   1.99844 1.09384e-06
   1.99889 3.19327e-07
   1.99933 4.71894e-08
   1.99978 4.82637e-10
         2          0
