         0          0
 0.0002225 2.53044e-07
 0.0006675 2.28214e-06
 0.0011125 6.34435e-06
 0.0015575 1.24285e-05
 0.0020025 2.05003e-05
 0.0024475 3.04972e-05
 0.0028925 4.23267e-05
 0.0033375 5.58678e-05
 0.0037825 7.09751e-05
 0.0042275 8.74842e-05
 0.0046725 0.000105218
 0.0051175 0.000123991
 0.0055625 0.000143618
 0.0060075 0.000163916
 0.0064525 0.000184707
 0.0068975 0.000205824
 0.0073476 0.000227366
0.00781612 0.000249831
0.00831203 0.000273491
0.00883694 0.000298238
0.00939255 0.000323942
0.00998065 0.000350446
 0.0106031 0.000377576
  0.011262 0.000405142
 0.0119594 0.000432944
 0.0126977 0.000460776
  0.013479 0.000488438
 0.0143061 0.000515737
 0.0151815 0.000542495
 0.0161082 0.000568558
  0.017089 0.000593796
 0.0181271 0.000618105
  0.019226 0.000641401
 0.0203891 0.000663613
 0.0216203 0.000684667
 0.0229234 0.000704488
 0.0243028 0.000722999
 0.0257628 0.00074013
 0.0273082 0.000755821
  0.028944 0.000770046
 0.0306754 0.000782835
 0.0325081 0.000794276
 0.0344479 0.000804479
 0.0365012 0.000813549
 0.0386746 0.000821587
  0.040975 0.000828626
   0.04341 0.000834629
 0.0459873 0.000839617
 0.0487154 0.00084374
  0.051603 0.000847236
 0.0546595 0.000850306
 0.0578947 0.00085294
 0.0613191 0.000855082
 0.0649437 0.00085719
 0.0687803 0.000859942
 0.0728413 0.000863789
 0.0771397 0.000869276
 0.0816895 0.000876979
 0.0865054 0.000886784
 0.0916029 0.000897739
 0.0969985 0.000909192
   0.10271 0.00092169
  0.108755 0.000936759
  0.115153 0.000953592
  0.121926 0.000969531
  0.129095 0.000982016
  0.136683 0.000990048
  0.144715 0.000995972
  0.153216 0.000999807
  0.162214 0.000997582
  0.171739 0.000991134
  0.181821 0.000984091
  0.192492 0.00097673
  0.203788 0.000962207
  0.215744 0.00093977
  0.228399 0.000905726
  0.241794 0.00084358
  0.255972 0.000760912
   0.27098 0.000677463
  0.286865 0.000595372
  0.304824 0.000515518
  0.324407 0.000452601
  0.343989 0.00039325
  0.363571 0.000335389
  0.383154 0.000232312
  0.402736 0.000128113
  0.422319 8.04237e-05
  0.441901 4.43566e-05
  0.461484 -9.73191e-07
  0.481066 -7.14776e-05
  0.500648 -0.000126265
  0.520231 -0.000157183
  0.539813 -0.000161086
  0.559396 -0.000177631
  0.578978 -0.000211632
   0.59856 -0.000240446
  0.618143 -0.000227434
  0.637725 -0.000187251
  0.657308 -0.000113669
   0.67689 -6.62364e-05
  0.696473 -3.19443e-05
  0.716055 6.81112e-06
  0.735637 2.83181e-05
   0.75522 3.83065e-05
  0.774802 5.72855e-05
  0.794385 8.16084e-05
  0.813967 0.000120196
  0.833549 0.000166768
  0.853132 0.000211158
  0.872714 0.000240263
  0.892297 0.000277145
  0.911879 0.000304977
  0.931462 0.000324922
  0.951044 0.000321489
  0.970626 0.000312793
  0.990209 0.000323702
   1.00979 0.000340138
   1.02937 0.00035909
   1.04896 0.000364463
   1.06854 0.000358819
   1.08812 0.000344621
    1.1077 0.000324647
   1.12729 0.000310425
   1.14687 0.000313088
   1.16645 0.00033777
   1.18603 0.000379168
   1.20562 0.000417327
    1.2252 0.000418266
   1.24478 0.000390034
   1.26436 0.000359121
   1.28395 0.000316704
   1.30353 0.000268659
   1.32311 0.00020603
   1.34269 0.000119764
   1.36228 3.79184e-05
   1.38186 -4.65851e-05
   1.40144 -0.000133089
   1.42102 -0.000217549
   1.44061 -0.00033859
   1.46019 -0.000466505
   1.47977 -0.000583811
   1.49935 -0.00070385
   1.51894 -0.00082143
   1.53852 -0.000928122
    1.5581 -0.00103284
   1.57768 -0.00113462
   1.59727  -0.001208
   1.61685 -0.00128018
   1.63643 -0.00132911
   1.65601 -0.00133315
    1.6756 -0.00133567
   1.69518 -0.00135451
   1.71314 -0.00139428
   1.72902 -0.00144668
   1.74403 -0.00148733
   1.75821 -0.00149805
    1.7716 -0.00151272
   1.78426 -0.00152222
   1.79621 -0.00151389
   1.80751 -0.0014978
   1.81818 -0.00147899
   1.82826 -0.0014596
   1.83779 -0.00143649
   1.84679 -0.0014097
   1.85529 -0.0013811
   1.86332 -0.00135414
   1.87091   -0.00133
   1.87808 -0.00130711
   1.88485 -0.00128257
   1.89125 -0.0012545
   1.89729 -0.00122248
     1.903 -0.00118622
    1.9084 -0.0011473
    1.9135 -0.00110883
   1.91831 -0.00107167
   1.92286 -0.00103589
   1.92716 -0.00100207
   1.93122 -0.000971128
   1.93506 -0.000943091
   1.93868 -0.00091728
   1.94211 -0.000893087
   1.94534 -0.00087006
    1.9484 -0.000847743
   1.95129 -0.000825854
   1.95401 -0.000804274
   1.95659 -0.000782812
   1.95903 -0.000761198
   1.96133 -0.00073924
    1.9635 -0.000716884
   1.96555 -0.000694133
   1.96749 -0.000670969
   1.96933 -0.000647411
   1.97106 -0.000623575
   1.97269 -0.000599621
   1.97424 -0.000575674
    1.9757 -0.000551812
   1.97708 -0.00052808
   1.97838 -0.000504505
   1.97961 -0.000481109
   1.98077 -0.000457918
   1.98187 -0.000434966
   1.98291 -0.000412284
   1.98389 -0.000389905
   1.98482 -0.000367854
   1.98569 -0.000346159
   1.98652 -0.000324848
    1.9873 -0.000303958
   1.98804 -0.000283536
   1.98874 -0.000263637
    1.9894 -0.000244325
   1.99002 -0.000225667
   1.99061 -0.000207728
   1.99116 -0.000190569
   1.99169 -0.000174243
   1.99218 -0.00015879
   1.99265 -0.00014424
    1.9931 -0.000130385
   1.99355 -0.00011688
   1.99399 -0.000103646
   1.99444 -9.07725e-05
   1.99488 -7.83548e-05
   1.99533 -6.64946e-05
   1.99577 -5.52977e-05
   1.99622 -4.48722e-05
   1.99666 -3.53254e-05
   1.99711 -2.67607e-05
   1.99755 -1.92727e-05
     1.998 -1.29429e-05
   1.99844 -7.83468e-06
   1.99889 -3.99058e-06
   1.99933 -1.43125e-06
   1.99978 -1.57994e-07
         2          0
