         0          0
 0.0002225 -1.63774e-08
 0.0006675 -6.90436e-07
 0.0011125 -3.37693e-06
 0.0015575 -9.57378e-06
 0.0020025 -2.06337e-05
 0.0024475 -3.76828e-05
 0.0028925 -6.15354e-05
 0.0033375 -9.26253e-05
 0.0037825 -0.000130993
 0.0042275 -0.000176323
 0.0046725 -0.000228011
 0.0051175 -0.000285246
 0.0055625 -0.000347093
 0.0060075 -0.00041256
 0.0064525 -0.000480662
 0.0068975 -0.000550462
 0.0073476 -0.000621938
0.00781612 -0.000696457
0.00831203 -0.000774627
0.00883694 -0.00085577
0.00939255 -0.000939122
0.00998065 -0.00102386
 0.0106031 -0.00110912
  0.011262 -0.00119406
 0.0119594 -0.00127784
 0.0126977 -0.00135969
  0.013479 -0.00143891
 0.0143061 -0.00151493
 0.0151815 -0.00158724
 0.0161082 -0.00165548
  0.017089 -0.00171938
 0.0181271 -0.00177877
  0.019226 -0.00183359
 0.0203891 -0.00188385
 0.0216203 -0.00192962
 0.0229234 -0.00197103
 0.0243028 -0.00200825
 0.0257628 -0.00204146
 0.0273082 -0.00207089
  0.028944 -0.00209675
 0.0306754 -0.00211928
 0.0325081 -0.0021387
 0.0344479 -0.00215525
 0.0365012 -0.00216915
 0.0386746 -0.00218062
  0.040975 -0.00218986
   0.04341 -0.00219706
 0.0459873 -0.0022024
 0.0487154 -0.00220607
  0.051603 -0.00220819
 0.0546595 -0.00220891
 0.0578947 -0.00220836
 0.0613191 -0.00220667
 0.0649437 -0.0022039
 0.0687803 -0.00220007
 0.0728413 -0.00219523
 0.0771397 -0.0021894
 0.0816895 -0.00218259
 0.0865054 -0.00217479
 0.0916029 -0.00216598
 0.0969985 -0.00215612
   0.10271 -0.00214538
  0.108755 -0.00213363
  0.115153 -0.0021209
  0.121926 -0.00210692
  0.129095 -0.00209199
  0.136683 -0.00207527
  0.144715 -0.00205809
  0.153216 -0.00203935
  0.162214 -0.00201921
  0.171739 -0.00199833
  0.181821 -0.00197496
  0.192492 -0.00195219
  0.203788 -0.00192372
  0.215744 -0.00190073
  0.228399 -0.00186476
  0.241794 -0.0018435
  0.255972 -0.00179593
   0.27098 -0.00178302
  0.286865 -0.00172294
  0.304824  -0.001686
  0.324407 -0.00166071
  0.343989 -0.00158434
  0.363571 -0.00155964
  0.383154 -0.00149385
  0.402736 -0.00146011
  0.422319 -0.00140149
  0.441901 -0.00136413
  0.461484 -0.00130733
  0.481066 -0.00126794
  0.500648 -0.00121381
  0.520231 -0.00117139
  0.539813 -0.0011205
  0.559396 -0.00107445
  0.578978 -0.00102681
   0.59856 -0.000979351
  0.618143 -0.000931631
  0.637725 -0.000884471
  0.657308 -0.000837574
   0.67689 -0.000789753
  0.696473 -0.000742473
  0.716055 -0.00069455
  0.735637 -0.00064921
   0.75522 -0.000599954
  0.774802 -0.000553803
  0.794385 -0.000505793
  0.813967 -0.000458179
  0.833549 -0.000410755
  0.853132 -0.000363508
  0.872714 -0.00031655
  0.892297 -0.000269056
  0.911879 -0.000221648
  0.931462 -0.000174807
  0.951044 -0.000127729
  0.970626 -8.06588e-05
  0.990209 -3.39923e-05
   1.00979 1.40164e-05
   1.02937 5.96747e-05
   1.04896 0.000107586
   1.06854 0.000153543
   1.08812 0.000202092
    1.1077 0.000247251
   1.12729 0.000295222
   1.14687 0.000341167
   1.16645 0.000388833
   1.18603 0.000435101
   1.20562 0.00048198
    1.2252 0.000528524
   1.24478 0.000576113
   1.26436 0.000622057
   1.28395 0.000671038
   1.30353 0.000716048
   1.32311 0.000764951
   1.34269 0.00081011
   1.36228 0.000858204
   1.38186 0.000903479
   1.40144 0.000952846
   1.42102 0.000996885
   1.44061 0.00104731
   1.46019 0.00108984
   1.47977 0.00114165
   1.49935 0.00118345
   1.51894 0.00123668
   1.53852 0.00127559
    1.5581 0.00133319
   1.57768 0.00136682
   1.59727 0.00143019
   1.61685 0.00145844
   1.63643 0.00152909
   1.65601 0.00154702
    1.6756 0.00163154
   1.69518 0.00165151
   1.71314 0.00169272
   1.72902 0.00174921
   1.74403  0.0017656
   1.75821 0.00181111
    1.7716 0.00183489
   1.78426 0.00187034
   1.79621 0.00189434
   1.80751 0.00192315
   1.81818 0.00194729
   1.82826 0.00197118
   1.83779 0.00199228
   1.84679 0.00201269
   1.85529 0.00203171
   1.86332 0.00204952
   1.87091 0.00206612
   1.87808 0.00208137
   1.88485 0.00209561
   1.89125 0.00210876
   1.89729 0.00212084
     1.903 0.00213181
    1.9084 0.00214169
    1.9135 0.00215053
   1.91831 0.00215857
   1.92286 0.00216559
   1.92716 0.00217156
   1.93122 0.00217656
   1.93506 0.00218056
   1.93868 0.00218352
   1.94211 0.00218542
   1.94534 0.00218612
    1.9484 0.00218549
   1.95129 0.00218347
   1.95401 0.00217992
   1.95659 0.00217468
   1.95903 0.00216759
   1.96133 0.00215847
    1.9635  0.0021471
   1.96555 0.00213329
   1.96749  0.0021168
   1.96933 0.00209743
   1.97106 0.00207494
   1.97269 0.00204913
   1.97424 0.00201975
    1.9757  0.0019866
   1.97708 0.00194946
   1.97838 0.00190813
   1.97961 0.00186245
   1.98077  0.0018123
   1.98187 0.00175761
   1.98291 0.00169838
   1.98389 0.00163469
   1.98482 0.00156671
   1.98569  0.0014947
   1.98652 0.00141907
    1.9873 0.00134029
   1.98804 0.00125897
   1.98874 0.00117581
    1.9894 0.00109157
   1.99002 0.00100708
   1.99061 0.000923186
   1.99116 0.000840746
   1.99169 0.000760569
   1.99218 0.000683404
   1.99265 0.000609914
    1.9931 0.000539495
   1.99355 0.000470792
   1.99399 0.00040383
   1.99444 0.000339526
   1.99488 0.000278845
   1.99533 0.000222748
   1.99577 0.000172143
   1.99622 0.000127809
   1.99666 9.03224e-05
   1.99711 5.99745e-05
   1.99755 3.67106e-05
     1.998 2.0094e-05
   1.99844 9.32071e-06
   1.99889  3.287e-06
   1.99933 6.7195e-07
   1.99978 1.59337e-08
         2          0
