         0          0
 0.0002225 0.000138769
 0.0006675 0.00124638
 0.0011125  0.0034561
 0.0015575 0.00675775
 0.0020025  0.0111315
 0.0024475  0.0165439
 0.0028925  0.0229457
 0.0033375  0.0302716
 0.0037825   0.038442
 0.0042275  0.0473657
 0.0046725  0.0569439
 0.0051175  0.0670742
 0.0055625   0.077654
 0.0060075  0.0885838
 0.0064525  0.0997695
 0.0068975   0.111124
 0.0073476   0.122705
0.00781612   0.134786
0.00831203    0.14752
0.00883694   0.160863
0.00939255    0.17476
0.00998065   0.189145
 0.0106031   0.203947
  0.011262   0.219087
 0.0119594   0.234486
 0.0126977   0.250061
  0.013479    0.26573
 0.0143061   0.281416
 0.0151815   0.297045
 0.0161082    0.31255
  0.017089   0.327871
 0.0181271   0.342957
  0.019226   0.357766
 0.0203891   0.372263
 0.0216203   0.386425
 0.0229234   0.400233
 0.0243028    0.41368
 0.0257628   0.426763
 0.0273082   0.439488
  0.028944   0.451865
 0.0306754   0.463912
 0.0325081   0.475649
 0.0344479   0.487099
 0.0365012   0.498289
 0.0386746   0.509249
  0.040975   0.520011
   0.04341   0.530606
 0.0459873   0.541067
 0.0487154   0.551426
  0.051603   0.561715
 0.0546595   0.571963
 0.0578947     0.5822
 0.0613191   0.592449
 0.0649437   0.602735
 0.0687803    0.61308
 0.0728413   0.623505
 0.0771397   0.634028
 0.0816895   0.644666
 0.0865054   0.655431
 0.0916029   0.666335
 0.0969985   0.677392
   0.10271   0.688617
  0.108755    0.70002
  0.115153   0.711608
  0.121926   0.723383
  0.129095   0.735345
  0.136683   0.747507
  0.144715   0.759884
  0.153216   0.772483
  0.162214     0.7853
  0.171739    0.79833
  0.181821   0.811568
  0.192492   0.825009
  0.203788   0.838654
  0.215744   0.852536
  0.228399    0.86667
  0.241794   0.881093
  0.255972   0.895796
   0.27098   0.910849
  0.286865   0.926195
  0.304824   0.943058
  0.324407   0.960939
  0.343989   0.978128
  0.363571    0.99468
  0.383154    1.01063
  0.402736    1.02613
  0.422319    1.04113
  0.441901    1.05562
  0.461484    1.06965
  0.481066    1.08328
  0.500648    1.09649
  0.520231    1.10933
  0.539813    1.12182
  0.559396    1.13398
  0.578978    1.14577
   0.59856    1.15714
  0.618143    1.16819
  0.637725    1.17892
  0.657308    1.18928
   0.67689    1.19923
  0.696473    1.20878
  0.716055    1.21792
  0.735637     1.2266
   0.75522    1.23481
  0.774802    1.24256
  0.794385    1.24983
  0.813967    1.25665
  0.833549    1.26293
  0.853132    1.26864
  0.872714    1.27371
  0.892297     1.2781
  0.911879    1.28182
  0.931462    1.28483
  0.951044    1.28713
  0.970626     1.2887
  0.990209    1.28951
   1.00979    1.28958
   1.02937    1.28888
   1.04896    1.28746
   1.06854    1.28531
   1.08812    1.28244
    1.1077    1.27882
   1.12729    1.27449
   1.14687    1.26948
   1.16645    1.26385
   1.18603    1.25768
   1.20562    1.25095
    1.2252    1.24363
   1.24478    1.23577
   1.26436    1.22739
   1.28395    1.21854
   1.30353    1.20924
   1.32311    1.19951
   1.34269    1.18932
   1.36228    1.17874
   1.38186    1.16781
   1.40144    1.15656
   1.42102    1.14504
   1.44061    1.13321
   1.46019    1.12098
   1.47977    1.10836
   1.49935    1.09539
   1.51894    1.08205
   1.53852    1.06831
    1.5581    1.05411
   1.57768    1.03938
   1.59727    1.02415
   1.61685    1.00833
   1.63643   0.991854
   1.65601   0.974658
    1.6756   0.956839
   1.69518   0.938318
   1.71314   0.920796
   1.72902   0.904808
   1.74403   0.889118
   1.75821   0.873858
    1.7716   0.858939
   1.78426   0.844352
   1.79621   0.830075
   1.80751    0.81613
   1.81818   0.802527
   1.82826    0.78924
   1.83779   0.776227
   1.84679    0.76346
   1.85529   0.750923
   1.86332   0.738602
   1.87091   0.726494
   1.87808   0.714597
   1.88485   0.702908
   1.89125   0.691423
   1.89729   0.680136
     1.903   0.669029
    1.9084   0.658091
    1.9135   0.647309
   1.91831   0.636675
   1.92286   0.626176
   1.92716   0.615795
   1.93122   0.605515
   1.93506   0.595315
   1.93868   0.585175
   1.94211   0.575074
   1.94534    0.56499
    1.9484   0.554892
   1.95129   0.544752
   1.95401   0.534539
   1.95659   0.524221
   1.95903   0.513768
   1.96133   0.503147
    1.9635   0.492326
   1.96555   0.481273
   1.96749    0.46996
   1.96933   0.458358
   1.97106   0.446444
   1.97269   0.434195
   1.97424   0.421598
    1.9757   0.408641
   1.97708    0.39532
   1.97838   0.381637
   1.97961   0.367601
   1.98077   0.353231
   1.98187   0.338551
   1.98291   0.323595
   1.98389   0.308408
   1.98482    0.29304
   1.98569   0.277552
   1.98652   0.262011
    1.9873   0.246491
   1.98804   0.231069
   1.98874   0.215828
    1.9894   0.200849
   1.99002   0.186212
   1.99061   0.171995
   1.99116   0.158267
   1.99169   0.145094
   1.99218   0.132527
   1.99265   0.120613
    1.9931   0.109198
   1.99355  0.0980116
   1.99399  0.0869979
   1.99444  0.0762422
   1.99488  0.0658368
   1.99533  0.0558791
   1.99577   0.046469
   1.99622  0.0377064
   1.99666  0.0296871
   1.99711  0.0224993
   1.99755  0.0162203
     1.998  0.0109129
   1.99844 0.00662475
   1.99889 0.00338802
   1.99933 0.00122183
   1.99978 0.000136037
         2          0
