         0          0
 0.0002225  0.0108795
 0.0006675  0.0326267
 0.0011125  0.0543504
 0.0015575  0.0760257
 0.0020025  0.0976155
 0.0024475   0.119071
 0.0028925   0.140335
 0.0033375   0.161345
 0.0037825   0.182036
 0.0042275   0.202344
 0.0046725   0.222208
 0.0051175   0.241578
 0.0055625   0.260406
 0.0060075   0.278656
 0.0064525   0.296301
 0.0068975   0.313321
 0.0073476   0.329893
0.00781612   0.346454
0.00831203   0.363215
0.00883694   0.380107
0.00939255   0.397059
0.00998065   0.413997
 0.0106031   0.430851
  0.011262    0.44755
 0.0119594   0.464029
 0.0126977   0.480225
  0.013479   0.496086
 0.0143061   0.511562
 0.0151815   0.526615
 0.0161082   0.541213
  0.017089   0.555331
 0.0181271   0.568953
  0.019226   0.582071
 0.0203891   0.594682
 0.0216203   0.606789
 0.0229234   0.618402
 0.0243028   0.629533
 0.0257628   0.640202
 0.0273082   0.650428
  0.028944   0.660236
 0.0306754   0.669652
 0.0325081   0.678702
 0.0344479   0.687416
 0.0365012   0.695823
 0.0386746   0.703953
  0.040975   0.711836
   0.04341   0.719502
 0.0459873   0.726979
 0.0487154   0.734295
  0.051603   0.741476
 0.0546595   0.748546
 0.0578947   0.755527
 0.0613191   0.762439
 0.0649437   0.769299
 0.0687803   0.776125
 0.0728413   0.782932
 0.0771397   0.789734
 0.0816895    0.79654
 0.0865054   0.803361
 0.0916029   0.810203
 0.0969985   0.817077
   0.10271    0.82399
  0.108755    0.83095
  0.115153   0.837961
  0.121926   0.845021
  0.129095   0.852131
  0.136683   0.859299
  0.144715   0.866532
  0.153216   0.873834
  0.162214   0.881202
  0.171739    0.88863
  0.181821   0.896116
  0.192492   0.903656
  0.203788   0.911247
  0.215744   0.918908
  0.228399   0.926646
  0.241794   0.934477
  0.255972   0.942392
   0.27098   0.950428
  0.286865   0.958557
  0.304824   0.967412
  0.324407   0.976725
  0.343989   0.985598
  0.363571   0.994071
  0.383154    1.00217
  0.402736    1.00997
  0.422319    1.01747
  0.441901    1.02467
  0.461484    1.03159
  0.481066    1.03827
  0.500648     1.0447
  0.520231    1.05092
  0.539813    1.05693
  0.559396    1.06276
  0.578978    1.06837
   0.59856    1.07377
  0.618143    1.07898
  0.637725    1.08401
  0.657308    1.08886
   0.67689    1.09349
  0.696473    1.09792
  0.716055    1.10214
  0.735637    1.10614
   0.75522    1.10991
  0.774802    1.11346
  0.794385    1.11678
  0.813967    1.11988
  0.833549    1.12274
  0.853132    1.12533
  0.872714    1.12763
  0.892297    1.12962
  0.911879     1.1313
  0.931462    1.13266
  0.951044     1.1337
  0.970626    1.13441
  0.990209    1.13478
   1.00979    1.13481
   1.02937     1.1345
   1.04896    1.13386
   1.06854     1.1329
   1.08812    1.13161
    1.1077    1.12998
   1.12729    1.12803
   1.14687    1.12577
   1.16645    1.12321
   1.18603    1.12042
   1.20562    1.11735
    1.2252    1.11402
   1.24478    1.11042
   1.26436    1.10657
   1.28395     1.1025
   1.30353    1.09821
   1.32311     1.0937
   1.34269    1.08896
   1.36228    1.08402
   1.38186    1.07889
   1.40144    1.07359
   1.42102    1.06813
   1.44061     1.0625
   1.46019    1.05665
   1.47977    1.05058
   1.49935    1.04431
   1.51894    1.03782
   1.53852     1.0311
    1.5581     1.0241
   1.57768    1.01679
   1.59727    1.00918
   1.61685    1.00121
   1.63643   0.992851
   1.65601   0.984052
    1.6756   0.974851
   1.69518   0.965193
   1.71314   0.955972
   1.72902   0.947478
   1.74403   0.939072
   1.75821   0.930826
    1.7716   0.922697
   1.78426   0.914682
   1.79621   0.906772
   1.80751   0.898981
   1.81818   0.891317
   1.82826   0.883767
   1.83779   0.876312
   1.84679   0.868936
   1.85529   0.861632
   1.86332   0.854391
   1.87091   0.847213
   1.87808   0.840098
   1.88485   0.833045
   1.89125   0.826053
   1.89729   0.819119
     1.903   0.812233
    1.9084   0.805389
    1.9135   0.798579
   1.91831   0.791796
   1.92286   0.785034
   1.92716    0.77828
   1.93122   0.771521
   1.93506   0.764744
   1.93868   0.757935
   1.94211   0.751077
   1.94534   0.744152
    1.9484   0.737139
   1.95129   0.730014
   1.95401   0.722753
   1.95659   0.715329
   1.95903   0.707715
   1.96133   0.699882
    1.9635   0.691802
   1.96555   0.683445
   1.96749   0.674779
   1.96933   0.665776
   1.97106   0.656405
   1.97269    0.64664
   1.97424   0.636454
    1.9757   0.625823
   1.97708   0.614728
   1.97838   0.603151
   1.97961   0.591078
   1.98077   0.578501
   1.98187   0.565417
   1.98291   0.551829
   1.98389   0.537746
   1.98482   0.523185
   1.98569    0.50817
   1.98652   0.492736
    1.9873   0.476921
   1.98804   0.460774
   1.98874    0.44435
    1.9894   0.427711
   1.99002   0.410922
   1.99061   0.394055
   1.99116    0.37718
   1.99169    0.36037
   1.99218   0.343697
   1.99265   0.327228
    1.9931   0.310753
   1.99355   0.293838
   1.99399   0.276309
   1.99444   0.258184
   1.99488   0.239492
   1.99533   0.220269
   1.99577    0.20056
   1.99622   0.180418
   1.99666   0.159901
   1.99711   0.139072
   1.99755   0.117995
     1.998  0.0967302
   1.99844   0.075335
   1.99889  0.0538561
   1.99933    0.03233
   1.99978  0.0107805
         2          0
