         0          0
 0.0002225 1.98176e-05
 0.0006675 5.94477e-05
 0.0011125 9.90452e-05
 0.0015575 0.000138558
 0.0020025 0.000177911
 0.0024475 0.000217011
 0.0028925 0.000255753
 0.0033375 0.000294024
 0.0037825 0.000331713
 0.0042275 0.000368709
 0.0046725 0.000404912
 0.0051175 0.000440226
 0.0055625 0.000474572
 0.0060075 0.000507879
 0.0064525 0.000540089
 0.0068975 0.000571154
 0.0073476 0.000601384
0.00781612 0.000631556
0.00831203 0.000662026
0.00883694 0.000692635
0.00939255 0.000723208
0.00998065 0.000753563
 0.0106031 0.000783515
  0.011262 0.000812882
 0.0119594 0.000841489
 0.0126977 0.000869177
  0.013479 0.000895811
 0.0143061 0.000921282
 0.0151815 0.000945508
 0.0161082 0.000968439
  0.017089 0.000990047
 0.0181271 0.00101031
  0.019226 0.00102922
 0.0203891 0.00104671
 0.0216203 0.00106272
 0.0229234 0.00107713
 0.0243028 0.00108983
 0.0257628 0.00110072
 0.0273082 0.00110968
  0.028944 0.00111672
 0.0306754 0.00112191
 0.0325081 0.00112544
 0.0344479 0.00112752
 0.0365012 0.00112833
 0.0386746 0.00112795
  0.040975 0.00112632
   0.04341 0.00112331
 0.0459873 0.00111902
 0.0487154 0.00111376
  0.051603 0.00110788
 0.0546595 0.00110167
 0.0578947  0.0010951
 0.0613191 0.00108819
 0.0649437 0.00108148
 0.0687803  0.0010756
 0.0728413 0.00107108
 0.0771397 0.00106856
 0.0816895 0.00106847
 0.0865054 0.00107042
 0.0916029 0.00107319
 0.0969985 0.00107596
   0.10271  0.0010796
  0.108755 0.00108591
  0.115153  0.0010934
  0.121926 0.00109917
  0.129095 0.00110106
  0.136683 0.00109916
  0.144715  0.0010961
  0.153216 0.00109181
  0.162214 0.00108114
  0.171739 0.00106599
  0.181821 0.00105104
  0.192492 0.00103649
  0.203788  0.0010146
  0.215744 0.000984636
  0.228399 0.000943113
  0.241794 0.000871103
  0.255972 0.000777591
   0.27098 0.000683477
  0.286865 0.000592349
  0.304824 0.000503697
  0.324407 0.000431708
  0.343989 0.00036723
  0.363571 0.000304793
  0.383154 0.000198333
  0.402736 9.59874e-05
  0.422319 5.0987e-05
  0.441901 1.66522e-05
  0.461484 -2.33075e-05
  0.481066 -8.63415e-05
  0.500648 -0.000133005
  0.520231 -0.000157161
  0.539813 -0.000159322
  0.559396 -0.000174605
  0.578978 -0.00020504
   0.59856 -0.000230089
  0.618143 -0.000216207
  0.637725 -0.000176581
  0.657308 -0.000107706
   0.67689 -6.68338e-05
  0.696473 -4.07273e-05
  0.716055 -8.30925e-06
  0.735637 1.03897e-05
   0.75522 2.07182e-05
  0.774802 4.05754e-05
  0.794385 6.43134e-05
  0.813967 0.000100185
  0.833549 0.00014297
  0.853132 0.000183467
  0.872714 0.000210991
  0.892297 0.000246258
  0.911879 0.000273314
  0.931462 0.000293061
  0.951044 0.000291964
  0.970626 0.000285153
  0.990209 0.00029483
   1.00979 0.000309203
   1.02937 0.000326568
   1.04896 0.000332293
   1.06854 0.000327392
   1.08812 0.000314853
    1.1077 0.00029807
   1.12729 0.000287161
   1.14687 0.000290881
   1.16645 0.00031365
   1.18603 0.000352087
   1.20562 0.00038887
    1.2252 0.000392834
   1.24478 0.000370334
   1.26436 0.00034533
   1.28395 0.000310258
   1.30353 0.000269642
   1.32311 0.000214886
   1.34269 0.000137891
   1.36228 6.32486e-05
   1.38186 -1.68789e-05
   1.40144 -9.97408e-05
   1.42102 -0.000181129
   1.44061 -0.000297097
   1.46019 -0.000420175
   1.47977 -0.000534676
   1.49935 -0.000654312
   1.51894 -0.000774806
   1.53852 -0.000886159
    1.5581 -0.0009971
   1.57768 -0.00110869
   1.59727 -0.00119565
   1.61685 -0.00128105
   1.63643 -0.00134165
   1.65601 -0.00135682
    1.6756 -0.00137371
   1.69518 -0.0014098
   1.71314 -0.00146865
   1.72902 -0.00154034
   1.74403 -0.00159886
   1.75821 -0.00162496
    1.7716 -0.00165667
   1.78426 -0.00168336
   1.79621 -0.00169022
   1.80751 -0.00168802
   1.81818 -0.00168262
   1.82826 -0.00167576
   1.83779 -0.0016639
   1.84679 -0.00164734
   1.85529 -0.0016276
   1.86332 -0.00160884
   1.87091 -0.00159276
   1.87808 -0.00157764
   1.88485 -0.00155993
   1.89125 -0.0015376
   1.89729 -0.0015108
     1.903 -0.00147895
    1.9084 -0.00144349
    1.9135 -0.0014082
   1.91831 -0.00137408
   1.92286 -0.00134064
   1.92716 -0.00130848
   1.93122 -0.00127893
   1.93506 -0.0012525
   1.93868 -0.00122879
   1.94211 -0.00120704
   1.94534 -0.00118658
    1.9484 -0.00116682
   1.95129 -0.00114741
   1.95401 -0.00112822
   1.95659 -0.00110902
   1.95903 -0.00108941
   1.96133 -0.00106905
    1.9635 -0.0010478
   1.96555 -0.00102571
   1.96749 -0.00100281
   1.96933 -0.000979187
   1.97106 -0.000955043
   1.97269 -0.000930641
   1.97424 -0.000906203
    1.9757 -0.000881862
   1.97708 -0.000857671
   1.97838 -0.000833631
   1.97961 -0.000809723
   1.98077 -0.00078593
   1.98187 -0.000762242
   1.98291 -0.000738653
   1.98389 -0.000715159
   1.98482 -0.00069175
   1.98569 -0.000668412
   1.98652 -0.000645132
    1.9873 -0.000621901
   1.98804 -0.00059872
   1.98874 -0.000575601
    1.9894 -0.000552571
   1.99002 -0.000529668
   1.99061 -0.000506942
   1.99116 -0.000484447
   1.99169 -0.000462243
   1.99218 -0.000440388
   1.99265 -0.00041894
    1.9931 -0.0003976
   1.99355 -0.000375788
   1.99399 -0.000353266
   1.99444 -0.000330048
   1.99488 -0.000306152
   1.99533 -0.00028161
   1.99577 -0.000256463
   1.99622 -0.000230764
   1.99666 -0.000204574
   1.99711 -0.000177967
   1.99755 -0.000151021
     1.998 -0.000123817
   1.99844 -9.64303e-05
   1.99889 -6.89305e-05
   1.99933 -4.13718e-05
   1.99978 -1.37916e-05
         2          0
