         0          0
 0.0002225 2.02149e-05
 0.0006675 0.000180149
 0.0011125 0.000497337
 0.0015575 0.000968468
 0.0020025 0.00158731
 0.0024475 0.00234314
 0.0028925 0.00322016
 0.0033375 0.00419797
 0.0037825 0.00525276
 0.0042275 0.00635908
 0.0046725 0.00749152
 0.0051175 0.00862626
 0.0055625 0.00974214
 0.0060075  0.0108214
 0.0064525  0.0118498
 0.0068975  0.0128168
 0.0073476  0.0137258
0.00781612  0.0145939
0.00831203  0.0154222
0.00883694  0.0161977
0.00939255  0.0169086
0.00998065  0.0175444
 0.0106031  0.0180968
  0.011262  0.0185591
 0.0119594  0.0189275
 0.0126977     0.0192
  0.013479  0.0193769
 0.0143061  0.0194607
 0.0151815  0.0194556
 0.0161082  0.0193672
  0.017089  0.0192024
 0.0181271   0.018969
  0.019226  0.0186753
 0.0203891  0.0183302
 0.0216203  0.0179426
 0.0229234   0.017521
 0.0243028  0.0170739
 0.0257628  0.0166094
 0.0273082  0.0161347
  0.028944  0.0156566
 0.0306754  0.0151812
 0.0325081  0.0147136
 0.0344479  0.0142584
 0.0365012   0.013819
 0.0386746  0.0133981
  0.040975  0.0129976
   0.04341  0.0126189
 0.0459873  0.0122627
 0.0487154  0.0119296
  0.051603  0.0116193
 0.0546595  0.0113314
 0.0578947  0.0110653
 0.0613191    0.01082
 0.0649437  0.0105943
 0.0687803  0.0103863
 0.0728413  0.0101946
 0.0771397  0.0100174
 0.0816895  0.0098532
 0.0865054 0.00970069
 0.0916029 0.00955815
 0.0969985  0.0094242
   0.10271 0.00929762
  0.108755 0.00917648
  0.115153 0.00905952
  0.121926 0.00894597
  0.129095  0.0088346
  0.136683 0.00872365
  0.144715 0.00861118
  0.153216 0.00849551
  0.162214  0.0083765
  0.171739 0.00825332
  0.181821 0.00812481
  0.192492 0.00799071
  0.203788  0.0078517
  0.215744 0.00770651
  0.228399 0.00755427
  0.241794 0.00739711
  0.255972 0.00723867
   0.27098 0.00707509
  0.286865 0.00689898
  0.304824 0.00670475
  0.324407 0.00648166
  0.343989 0.00626249
  0.363571  0.0060468
  0.383154 0.00583852
  0.402736 0.00563891
  0.422319 0.00544266
  0.441901 0.00524697
  0.461484 0.00505602
  0.481066  0.0048693
  0.500648  0.0046859
  0.520231 0.00450477
  0.539813 0.00432743
  0.559396  0.0041515
  0.578978   0.003983
   0.59856  0.0038213
  0.618143 0.00366422
  0.637725 0.00351008
  0.657308 0.00335976
   0.67689 0.00321404
  0.696473 0.00307262
  0.716055 0.00293663
  0.735637 0.00280451
   0.75522 0.00267355
  0.774802 0.00254588
  0.794385 0.00242331
  0.813967 0.00230805
  0.833549 0.00220073
  0.853132 0.00209973
  0.872714 0.00200515
  0.892297 0.00191932
  0.911879 0.00184404
  0.931462 0.00177985
  0.951044 0.00172948
  0.970626 0.00169185
  0.990209 0.00166893
   1.00979 0.00166019
   1.02937 0.00166495
   1.04896  0.0016835
   1.06854 0.00171553
   1.08812 0.00176106
    1.1077 0.00182053
   1.12729 0.00189344
   1.14687 0.00197786
   1.16645 0.00207211
   1.18603 0.00217495
   1.20562 0.00228606
    1.2252 0.00240474
   1.24478 0.00253079
   1.26436 0.00266289
   1.28395 0.00279846
   1.30353 0.00293732
   1.32311 0.00307917
   1.34269 0.00322294
   1.36228 0.00337057
   1.38186 0.00352026
   1.40144  0.0036743
   1.42102 0.00383354
   1.44061  0.0039926
   1.46019 0.00415361
   1.47977 0.00431614
   1.49935 0.00447765
   1.51894 0.00464262
   1.53852 0.00481533
    1.5581 0.00499477
   1.57768 0.00517933
   1.59727 0.00537156
   1.61685  0.0055707
   1.63643  0.0057739
   1.65601 0.00598033
    1.6756 0.00618975
   1.69518  0.0064109
   1.71314 0.00661088
   1.72902   0.006796
   1.74403 0.00696979
   1.75821 0.00713309
    1.7716 0.00728672
   1.78426 0.00743016
   1.79621 0.00756613
   1.80751 0.00769481
   1.81818 0.00781813
   1.82826 0.00793673
   1.83779 0.00804994
   1.84679 0.00815975
   1.85529  0.0082683
   1.86332 0.00837672
   1.87091 0.00848587
   1.87808 0.00859757
   1.88485 0.00871275
   1.89125 0.00883205
   1.89729 0.00895614
     1.903 0.00908594
    1.9084 0.00922245
    1.9135   0.009367
   1.91831 0.00952181
   1.92286 0.00968892
   1.92716 0.00986992
   1.93122  0.0100661
   1.93506  0.0102788
   1.93868  0.0105094
   1.94211  0.0107594
   1.94534  0.0110299
    1.9484  0.0113219
   1.95129  0.0116365
   1.95401   0.011974
   1.95659  0.0123343
   1.95903  0.0127172
   1.96133  0.0131215
    1.9635  0.0135457
   1.96555  0.0139876
   1.96749  0.0144444
   1.96933  0.0149125
   1.97106  0.0153877
   1.97269  0.0158647
   1.97424  0.0163376
    1.9757  0.0167996
   1.97708  0.0172436
   1.97838  0.0176614
   1.97961  0.0180449
   1.98077  0.0183853
   1.98187  0.0186739
   1.98291   0.018902
   1.98389  0.0190615
   1.98482  0.0191447
   1.98569  0.0191449
   1.98652  0.0190566
    1.9873  0.0188759
   1.98804  0.0186007
   1.98874  0.0182307
    1.9894  0.0177681
   1.99002  0.0172173
   1.99061  0.0165847
   1.99116   0.015879
   1.99169  0.0151106
   1.99218  0.0142913
   1.99265   0.013434
    1.9931  0.0125377
   1.99355  0.0115855
   1.99399  0.0105743
   1.99444  0.0095145
   1.99488 0.00842018
   1.99533  0.0073088
   1.99577 0.00620101
   1.99622 0.00511997
   1.99666 0.00409031
   1.99711 0.00313663
   1.99755 0.00228185
     1.998 0.00154557
   1.99844 0.000942942
   1.99889 0.000484231
   1.99933 0.000175412
   1.99978 1.96855e-05
         2          0
