         0          0
 0.0002225 8.24811e-06
 0.0006675 6.43924e-05
 0.0011125 0.000160255
 0.0015575 0.000283359
 0.0020025 0.000424204
 0.0024475 0.000575613
 0.0028925 0.000732283
 0.0033375 0.000890414
 0.0037825 0.00104739
 0.0042275  0.0012015
 0.0046725  0.0013517
 0.0051175 0.00149742
 0.0055625 0.00163842
 0.0060075 0.00177465
 0.0064525 0.00190617
 0.0068975 0.00203311
 0.0073476 0.00215714
0.00781612 0.00228182
0.00831203 0.00240886
0.00883694 0.00253802
0.00939255 0.00266899
0.00998065 0.00280137
 0.0106031 0.00293472
  0.011262 0.00306848
 0.0119594 0.00320206
 0.0126977 0.00333477
  0.013479 0.00346589
 0.0143061 0.00359468
 0.0151815 0.00372038
 0.0161082 0.00384226
  0.017089 0.00395964
 0.0181271  0.0040719
  0.019226 0.00417852
 0.0203891 0.00427908
 0.0216203 0.00437327
 0.0229234 0.00446086
 0.0243028 0.00454174
 0.0257628 0.00461585
 0.0273082 0.00468317
  0.028944 0.00474373
 0.0306754 0.00479754
 0.0325081 0.00484459
 0.0344479 0.00488484
 0.0365012 0.00491827
 0.0386746 0.00494483
  0.040975 0.00496452
   0.04341  0.0049773
 0.0459873 0.00498322
 0.0487154 0.00498242
  0.051603 0.00497504
 0.0546595 0.00496113
 0.0578947 0.00494072
 0.0613191 0.00491404
 0.0649437 0.00488156
 0.0687803  0.0048438
 0.0728413 0.00480117
 0.0771397 0.00475406
 0.0816895 0.00470296
 0.0865054 0.00464841
 0.0916029 0.00459111
 0.0969985 0.00453156
   0.10271 0.00447044
  0.108755 0.00440818
  0.115153 0.00434514
  0.121926 0.00428199
  0.129095 0.00421951
  0.136683 0.00415794
  0.144715 0.00409635
  0.153216 0.00403371
  0.162214 0.00397027
  0.171739 0.00390604
  0.181821 0.00384124
  0.192492 0.00377462
  0.203788 0.00370808
  0.215744 0.00364112
  0.228399 0.00357546
  0.241794 0.00351034
  0.255972 0.00344137
   0.27098  0.0033721
  0.286865  0.0032971
  0.304824 0.00322005
  0.324407 0.00313106
  0.343989 0.00304711
  0.363571 0.00296314
  0.383154 0.00288013
  0.402736 0.00279612
  0.422319 0.00271372
  0.441901 0.00263268
  0.461484  0.0025495
  0.481066 0.00246279
  0.500648 0.00237584
  0.520231 0.00229204
  0.539813 0.00221311
  0.559396 0.00213772
  0.578978  0.0020622
   0.59856 0.00198514
  0.618143 0.00190809
  0.637725 0.00183343
  0.657308 0.00176115
   0.67689 0.00168887
  0.696473 0.00161749
  0.716055 0.00154968
  0.735637 0.00148394
   0.75522 0.00142032
  0.774802  0.0013617
  0.794385 0.00130653
  0.813967 0.00125622
  0.833549  0.0012097
  0.853132  0.0011682
  0.872714 0.00113161
  0.892297 0.00109904
  0.911879 0.00107135
  0.931462 0.00104941
  0.951044 0.00103176
  0.970626  0.0010194
  0.990209 0.00101296
   1.00979 0.00101278
   1.02937 0.00101826
   1.04896 0.00102956
   1.06854 0.00104668
   1.08812  0.0010693
    1.1077 0.00109625
   1.12729 0.00112741
   1.14687 0.00116433
   1.16645 0.00120667
   1.18603 0.00125331
   1.20562 0.00130346
    1.2252 0.00135657
   1.24478 0.00141184
   1.26436 0.00146953
   1.28395 0.00153073
   1.30353 0.00159559
   1.32311  0.0016642
   1.34269 0.00173589
   1.36228 0.00181089
   1.38186 0.00188782
   1.40144 0.00196644
   1.42102 0.00204661
   1.44061 0.00212735
   1.46019 0.00220905
   1.47977 0.00229282
   1.49935 0.00237859
   1.51894  0.0024672
   1.53852 0.00255521
    1.5581 0.00264329
   1.57768 0.00273431
   1.59727   0.002826
   1.61685  0.0029167
   1.63643  0.0030089
   1.65601 0.00310077
    1.6756 0.00318961
   1.69518  0.0032856
   1.71314 0.00336395
   1.72902 0.00343526
   1.74403  0.0035012
   1.75821 0.00356838
    1.7716 0.00363723
   1.78426 0.00370519
   1.79621 0.00376982
   1.80751 0.00383089
   1.81818 0.00388895
   1.82826 0.00394618
   1.83779 0.00400393
   1.84679 0.00406252
   1.85529 0.00412187
   1.86332 0.00418219
   1.87091 0.00424281
   1.87808 0.00430296
   1.88485 0.00436273
   1.89125 0.00442274
   1.89729  0.0044829
     1.903 0.00454222
    1.9084 0.00459957
    1.9135 0.00465448
   1.91831 0.00470664
   1.92286 0.00475571
   1.92716 0.00480092
   1.93122 0.00484156
   1.93506 0.00487718
   1.93868 0.00490739
   1.94211 0.00493189
   1.94534 0.00495047
    1.9484  0.0049629
   1.95129 0.00496889
   1.95401 0.00496823
   1.95659 0.00496084
   1.95903 0.00494665
   1.96133  0.0049256
    1.9635 0.00489765
   1.96555 0.00486284
   1.96749 0.00482127
   1.96933 0.00477299
   1.97106 0.00471804
   1.97269  0.0046564
   1.97424 0.00458807
    1.9757 0.00451306
   1.97708  0.0044314
   1.97838 0.00434318
   1.97961 0.00424854
   1.98077  0.0041477
   1.98187 0.00404095
   1.98291 0.00392869
   1.98389 0.00381143
   1.98482 0.00368977
   1.98569 0.00356437
   1.98652 0.00343597
    1.9873 0.00330531
   1.98804 0.00317315
   1.98874 0.00304022
    1.9894 0.00290718
   1.99002 0.00277463
   1.99061 0.00264312
   1.99116 0.00251307
   1.99169 0.00238487
   1.99218 0.00225881
   1.99265 0.00213513
    1.9931 0.00201212
   1.99355 0.00188623
   1.99399 0.00175583
   1.99444 0.00162078
   1.99488 0.00148101
   1.99533 0.00133659
   1.99577 0.00118777
   1.99622 0.00103513
   1.99666 0.000879703
   1.99711 0.000723211
   1.99755 0.000568253
     1.998 0.000418596
   1.99844 0.000279482
   1.99889 0.000157981
   1.99933 6.34426e-05
   1.99978 8.12018e-06
         2          0
