         0          0
 0.0002225 -1.70811e-08
 0.0006675 -6.96127e-07
 0.0011125 -3.38848e-06
 0.0015575 -9.58246e-06
 0.0020025 -2.06277e-05
 0.0024475 -3.76502e-05
 0.0028925 -6.14638e-05
 0.0033375 -9.25023e-05
 0.0037825 -0.000130807
 0.0042275 -0.000176062
 0.0046725 -0.000227666
 0.0051175 -0.000284807
 0.0055625 -0.000346551
 0.0060075 -0.000411907
 0.0064525 -0.000479893
 0.0068975 -0.000549575
 0.0073476 -0.000620925
0.00781612 -0.000695302
0.00831203 -0.000773308
0.00883694 -0.00085427
0.00939255 -0.000937422
0.00998065 -0.00102194
 0.0106031 -0.00110697
  0.011262 -0.00119165
 0.0119594 -0.00127514
 0.0126977 -0.00135669
  0.013479 -0.00143559
 0.0143061 -0.00151126
 0.0151815 -0.00158321
 0.0161082 -0.00165107
  0.017089 -0.00171456
 0.0181271 -0.00177354
  0.019226 -0.00182793
 0.0203891 -0.00187774
 0.0216203 -0.00192305
 0.0229234  -0.001964
 0.0243028 -0.00200074
 0.0257628 -0.00203347
 0.0273082 -0.00206242
  0.028944 -0.00208779
 0.0306754 -0.00210983
 0.0325081 -0.00212876
 0.0344479 -0.00214482
 0.0365012 -0.0021582
 0.0386746 -0.00216912
  0.040975 -0.00217774
   0.04341 -0.00218427
 0.0459873 -0.00218887
 0.0487154 -0.0021917
  0.051603 -0.00219288
 0.0546595 -0.00219253
 0.0578947 -0.00219079
 0.0613191 -0.00218776
 0.0649437 -0.00218349
 0.0687803 -0.00217804
 0.0728413 -0.00217146
 0.0771397 -0.00216378
 0.0816895 -0.00215503
 0.0865054 -0.00214524
 0.0916029 -0.00213437
 0.0969985 -0.00212244
   0.10271 -0.00210943
  0.108755 -0.00209531
  0.115153 -0.00208012
  0.121926 -0.00206382
  0.129095 -0.00204633
  0.136683 -0.0020276
  0.144715 -0.00200765
  0.153216 -0.00198645
  0.162214 -0.00196392
  0.171739 -0.00193992
  0.181821 -0.00191472
  0.192492 -0.00188803
  0.203788   -0.00186
  0.215744 -0.00182999
  0.228399 -0.00179887
  0.241794 -0.00176538
  0.255972 -0.00173099
   0.27098 -0.00169381
  0.286865 -0.00165652
  0.304824 -0.00161512
  0.324407 -0.00156707
  0.343989 -0.00152004
  0.363571 -0.00147376
  0.383154 -0.00142759
  0.402736 -0.00138188
  0.422319 -0.00133635
  0.441901 -0.00129118
  0.461484 -0.00124612
  0.481066 -0.00120112
  0.500648 -0.00115624
  0.520231 -0.00111147
  0.539813 -0.00106669
  0.559396 -0.0010219
  0.578978 -0.000977272
   0.59856 -0.000932791
  0.618143 -0.000887954
  0.637725 -0.000843377
  0.657308 -0.000798609
   0.67689 -0.000754013
  0.696473 -0.000709199
  0.716055 -0.000664453
  0.735637 -0.000619659
   0.75522 -0.000574538
  0.774802 -0.000529768
  0.794385 -0.000484587
  0.813967 -0.000439537
  0.833549 -0.000394477
  0.853132 -0.000349316
  0.872714 -0.000304198
  0.892297 -0.000258925
  0.911879 -0.000213602
  0.931462 -0.00016844
  0.951044 -0.000122962
  0.970626 -7.7717e-05
  0.990209 -3.22992e-05
   1.00979 1.29808e-05
   1.02937 5.83048e-05
   1.04896 0.000103645
   1.06854 0.000148944
   1.08812 0.000194237
    1.1077 0.000239459
   1.12729 0.000284795
   1.14687 0.000329879
   1.16645 0.000375305
   1.18603 0.000420529
   1.20562 0.00046564
    1.2252 0.00051066
   1.24478 0.00055578
   1.26436 0.000600828
   1.28395 0.000645979
   1.30353 0.000690924
   1.32311 0.000735879
   1.34269 0.000780806
   1.36228 0.000825898
   1.38186 0.000870737
   1.40144 0.000915828
   1.42102 0.000960892
   1.44061 0.00100607
   1.46019 0.00105139
   1.47977 0.00109692
   1.49935 0.00114275
   1.51894 0.00118889
   1.53852 0.00123497
    1.5581 0.00128152
   1.57768 0.00132801
   1.59727 0.00137506
   1.61685 0.00142222
   1.63643 0.00146957
   1.65601 0.00151766
    1.6756 0.00156646
   1.69518 0.00161543
   1.71314  0.0016573
   1.72902 0.00169439
   1.74403 0.00173146
   1.75821 0.00176589
    1.7716 0.00179894
   1.78426 0.00182998
   1.79621 0.00185937
   1.80751 0.00188719
   1.81818 0.00191351
   1.82826  0.0019381
   1.83779 0.00196119
   1.84679 0.00198281
   1.85529 0.00200316
   1.86332 0.00202218
   1.87091 0.00203996
   1.87808 0.00205657
   1.88485 0.00207197
   1.89125 0.00208633
   1.89729 0.00209957
     1.903 0.00211175
    1.9084 0.00212292
    1.9135 0.00213306
   1.91831 0.00214219
   1.92286  0.0021503
   1.92716 0.00215737
   1.93122 0.00216338
   1.93506 0.00216832
   1.93868 0.00217213
   1.94211 0.00217477
   1.94534 0.00217614
    1.9484 0.00217611
   1.95129 0.00217459
   1.95401 0.00217145
   1.95659 0.00216656
   1.95903 0.00215977
   1.96133  0.0021509
    1.9635 0.00213979
   1.96555 0.00212621
   1.96749 0.00210997
   1.96933 0.00209084
   1.97106 0.00206862
   1.97269 0.00204307
   1.97424 0.00201397
    1.9757  0.0019811
   1.97708 0.00194425
   1.97838 0.00190322
   1.97961 0.00185785
   1.98077   0.001808
   1.98187 0.00175361
   1.98291 0.00169468
   1.98389 0.00163128
   1.98482 0.00156358
   1.98569 0.00149185
   1.98652 0.00141647
    1.9873 0.00133794
   1.98804 0.00125685
   1.98874  0.0011739
    1.9894 0.00108986
   1.99002 0.00100555
   1.99061 0.000921828
   1.99116 0.000839543
   1.99169 0.000759508
   1.99218 0.000682472
   1.99265 0.000609094
    1.9931 0.000538772
   1.99355 0.000470163
   1.99399 0.000403294
   1.99444 0.00033908
   1.99488 0.000278482
   1.99533 0.000222462
   1.99577 0.000171927
   1.99622 0.000127656
   1.99666 9.02223e-05
   1.99711 5.99178e-05
   1.99755 3.66868e-05
     1.998 2.00925e-05
   1.99844 9.33114e-06
   1.99889 3.2989e-06
   1.99933 6.77601e-07
   1.99978 1.66165e-08
         2          0
