         0          0
 0.0002225 5.01264e-10
 0.0006675 4.84673e-08
 0.0011125 3.27522e-07
 0.0015575 1.12101e-06
 0.0020025 2.72279e-06
 0.0024475 5.39979e-06
 0.0028925 9.3782e-06
 0.0033375 1.4835e-05
 0.0037825 2.18961e-05
 0.0042275 3.06406e-05
 0.0046725 4.11076e-05
 0.0051175 5.33036e-05
 0.0055625 6.72092e-05
 0.0060075 8.27851e-05
 0.0064525 9.99773e-05
 0.0068975 0.000118722
 0.0073476 0.000139194
0.00781612 0.000162048
0.00831203 0.000187854
0.00883694 0.00021686
0.00939255 0.000249316
0.00998065 0.000285465
 0.0106031 0.000325542
  0.011262 0.000369766
 0.0119594 0.000418332
 0.0126977 0.000471407
  0.013479 0.000529116
 0.0143061 0.000591539
 0.0151815  0.0006587
 0.0161082 0.000730559
  0.017089 0.000807008
 0.0181271 0.000887863
  0.019226 0.000972859
 0.0203891 0.00106165
 0.0216203 0.00115381
 0.0229234 0.00124882
 0.0243028 0.00134611
 0.0257628 0.00144502
 0.0273082 0.00154483
  0.028944 0.00164478
 0.0306754 0.00174406
 0.0325081 0.00184185
 0.0344479 0.00193735
 0.0365012 0.00202977
 0.0386746 0.00211839
  0.040975 0.00220253
   0.04341  0.0022816
 0.0459873 0.00235512
 0.0487154 0.00242271
  0.051603 0.00248409
 0.0546595 0.00253911
 0.0578947 0.00258777
 0.0613191 0.00263016
 0.0649437 0.00266652
 0.0687803 0.00269712
 0.0728413 0.00272231
 0.0771397 0.00274244
 0.0816895 0.00275788
 0.0865054   0.002769
 0.0916029 0.00277612
 0.0969985 0.00277962
   0.10271 0.00277988
  0.108755 0.00277733
  0.115153 0.00277225
  0.121926 0.00276476
  0.129095  0.0027548
  0.136683 0.00274226
  0.144715 0.00272726
  0.153216 0.00271007
  0.162214 0.00269091
  0.171739 0.00266997
  0.181821 0.00264745
  0.192492 0.00262318
  0.203788 0.00259712
  0.215744 0.00256908
  0.228399 0.00253942
  0.241794 0.00250757
  0.255972 0.00247387
   0.27098 0.00243827
  0.286865 0.00240061
  0.304824 0.00235829
  0.324407 0.00230944
  0.343989 0.00226106
  0.363571 0.00221274
  0.383154  0.0021645
  0.402736 0.00211525
  0.422319 0.00206547
  0.441901 0.00201661
  0.461484  0.0019669
  0.481066 0.00191696
  0.500648 0.00186681
  0.520231 0.00181643
  0.539813 0.00176618
  0.559396 0.00171583
  0.578978 0.00166616
   0.59856 0.00161731
  0.618143 0.00156875
  0.637725 0.00152126
  0.657308 0.00147526
   0.67689 0.00143086
  0.696473 0.00138755
  0.716055 0.00134574
  0.735637 0.00130652
   0.75522 0.00126956
  0.774802 0.00123448
  0.794385 0.00120156
  0.813967 0.00117102
  0.833549 0.00114253
  0.853132 0.00111697
  0.872714  0.0010945
  0.892297 0.00107528
  0.911879 0.00105887
  0.931462 0.00104588
  0.951044 0.00103605
  0.970626 0.00102952
  0.990209 0.00102606
   1.00979 0.00102549
   1.02937 0.00102781
   1.04896 0.00103349
   1.06854 0.00104192
   1.08812 0.00105294
    1.1077 0.00106668
   1.12729 0.00108398
   1.14687 0.00110437
   1.16645 0.00112829
   1.18603 0.00115523
   1.20562 0.00118571
    1.2252 0.00121877
   1.24478 0.00125436
   1.26436 0.00129194
   1.28395 0.00133097
   1.30353 0.00137116
   1.32311 0.00141292
   1.34269 0.00145595
   1.36228 0.00150137
   1.38186 0.00154852
   1.40144 0.00159694
   1.42102 0.00164648
   1.44061 0.00169688
   1.46019 0.00174851
   1.47977 0.00180087
   1.49935 0.00185329
   1.51894  0.0019062
   1.53852 0.00195952
    1.5581 0.00201282
   1.57768 0.00206647
   1.59727 0.00211978
   1.61685 0.00217221
   1.63643 0.00222427
   1.65601  0.0022774
    1.6756 0.00232979
   1.69518 0.00238022
   1.71314 0.00242365
   1.72902 0.00246292
   1.74403 0.00250056
   1.75821 0.00253666
    1.7716 0.00257046
   1.78426 0.00260129
   1.79621 0.00262973
   1.80751  0.0026557
   1.81818 0.00267893
   1.82826 0.00269963
   1.83779 0.00271844
   1.84679 0.00273549
   1.85529 0.00275045
   1.86332 0.00276326
   1.87091 0.00277377
   1.87808 0.00278194
   1.88485 0.00278763
   1.89125 0.00279069
   1.89729 0.00279094
     1.903 0.00278825
    1.9084 0.00278243
    1.9135 0.00277322
   1.91831 0.00276021
   1.92286 0.00274296
   1.92716 0.00272109
   1.93122 0.00269418
   1.93506 0.00266186
   1.93868 0.00262378
   1.94211 0.00257967
   1.94534 0.00252935
    1.9484 0.00247274
   1.95129 0.00240989
   1.95401 0.00234097
   1.95659 0.00226624
   1.95903 0.00218613
   1.96133 0.00210113
    1.9635 0.00201185
   1.96555 0.00191899
   1.96749 0.00182327
   1.96933 0.00172547
   1.97106 0.00162639
   1.97269 0.00152681
   1.97424 0.00142749
    1.9757 0.00132919
   1.97708  0.0012326
   1.97838 0.00113835
   1.97961   0.001047
   1.98077 0.000959067
   1.98187 0.000874946
   1.98291 0.000794976
   1.98389 0.000719409
   1.98482 0.00064842
   1.98569 0.00058211
   1.98652 0.000520509
    1.9873 0.000463589
   1.98804 0.000411264
   1.98874 0.000363406
    1.9894 0.000319845
   1.99002 0.000280385
   1.99061 0.000244807
   1.99116 0.000212875
   1.99169 0.000184348
   1.99218 0.000158978
   1.99265 0.000136518
    1.9931 0.000116406
   1.99355 9.7997e-05
   1.99399 8.11194e-05
   1.99444 6.58347e-05
   1.99488 5.2195e-05
   1.99533 4.02375e-05
   1.99577 2.99801e-05
   1.99622 2.1415e-05
   1.99666 1.45026e-05
   1.99711 9.16367e-06
   1.99755 5.27355e-06
     1.998 2.65764e-06
   1.99844 1.09348e-06
   1.99889 3.19226e-07
   1.99933 4.71753e-08
   1.99978 4.82519e-10
         2          0
