         0          0
 0.0002225 3.85241e-08
 0.0006675 3.52608e-07
 0.0011125 9.89762e-07
 0.0015575 1.95166e-06
 0.0020025 3.22964e-06
 0.0024475 4.8035e-06
 0.0028925 6.64229e-06
 0.0033375 8.70662e-06
 0.0037825 1.09517e-05
 0.0042275 1.33307e-05
 0.0046725 1.57971e-05
 0.0051175 1.83069e-05
 0.0055625 2.08196e-05
 0.0060075 2.32996e-05
 0.0064525 2.57161e-05
 0.0068975 2.80437e-05
 0.0073476 3.02882e-05
0.00781612 3.24914e-05
0.00831203 3.46594e-05
0.00883694 3.67615e-05
0.00939255 3.87667e-05
0.00998065 4.06456e-05
 0.0106031 4.23708e-05
  0.011262 4.39175e-05
 0.0119594 4.52635e-05
 0.0126977 4.63884e-05
  0.013479 4.72736e-05
 0.0143061 4.79015e-05
 0.0151815 4.82565e-05
 0.0161082 4.83273e-05
  0.017089 4.81095e-05
 0.0181271 4.76108e-05
  0.019226 4.68542e-05
 0.0203891 4.58789e-05
 0.0216203 4.4736e-05
 0.0229234 4.34819e-05
 0.0243028 4.21749e-05
 0.0257628 4.08731e-05
 0.0273082 3.96276e-05
  0.028944 3.84682e-05
 0.0306754 3.73967e-05
 0.0325081 3.64012e-05
 0.0344479 3.54649e-05
 0.0365012 3.45797e-05
 0.0386746 3.37812e-05
  0.040975 3.31415e-05
   0.04341 3.26908e-05
 0.0459873 3.23764e-05
 0.0487154 3.21189e-05
  0.051603 3.18748e-05
 0.0546595 3.16304e-05
 0.0578947 3.13775e-05
 0.0613191 3.10505e-05
 0.0649437 3.06931e-05
 0.0687803 3.0486e-05
 0.0728413 3.04426e-05
 0.0771397 3.05541e-05
 0.0816895 3.09964e-05
 0.0865054 3.19124e-05
 0.0916029 3.32725e-05
 0.0969985 3.50225e-05
   0.10271 3.69425e-05
  0.108755 3.89813e-05
  0.115153 4.15078e-05
  0.121926 4.43653e-05
  0.129095 4.68781e-05
  0.136683 4.80979e-05
  0.144715 4.81498e-05
  0.153216 4.71505e-05
  0.162214 4.57043e-05
  0.171739 4.41638e-05
  0.181821 4.22961e-05
  0.192492 4.00756e-05
  0.203788 3.76725e-05
  0.215744 3.5239e-05
  0.228399 3.2599e-05
  0.241794 3.11945e-05
  0.255972 3.05725e-05
   0.27098 3.10146e-05
  0.286865 3.10527e-05
  0.304824 3.21805e-05
  0.324407 3.5211e-05
  0.343989 3.56034e-05
  0.363571 3.6197e-05
  0.383154 3.62643e-05
  0.402736 3.23618e-05
  0.422319 2.78094e-05
  0.441901 2.36487e-05
  0.461484 1.66943e-05
  0.481066 9.79841e-06
  0.500648 3.4378e-06
  0.520231 -1.16745e-06
  0.539813 -2.12933e-06
  0.559396 -1.94375e-06
  0.578978 -2.3148e-06
   0.59856 -2.69197e-06
  0.618143 -2.8275e-06
  0.637725 -3.72149e-06
  0.657308 -3.22888e-06
   0.67689 1.07768e-06
  0.696473 7.64381e-06
  0.716055 1.1457e-05
  0.735637 1.3038e-05
   0.75522 1.20242e-05
  0.774802 9.06228e-06
  0.794385 6.57354e-06
  0.813967 4.45034e-06
  0.833549 2.49081e-06
  0.853132 1.34189e-06
  0.872714 -9.35737e-08
  0.892297 -2.44467e-06
  0.911879 -4.72349e-06
  0.931462 -6.75844e-06
  0.951044 -8.50662e-06
  0.970626 -8.94804e-06
  0.990209 -8.34631e-06
   1.00979 -7.5077e-06
   1.02937 -7.65372e-06
   1.04896 -8.18663e-06
   1.06854 -7.68588e-06
   1.08812 -7.22116e-06
    1.1077 -7.99778e-06
   1.12729 -9.83555e-06
   1.14687 -1.14828e-05
   1.16645 -1.25406e-05
   1.18603 -1.40125e-05
   1.20562 -1.65562e-05
    1.2252 -1.94224e-05
   1.24478 -2.17758e-05
   1.26436 -2.36554e-05
   1.28395 -2.57308e-05
   1.30353 -2.76975e-05
   1.32311 -2.8992e-05
   1.34269 -2.98699e-05
   1.36228 -2.93855e-05
   1.38186 -2.63832e-05
   1.40144 -2.34965e-05
   1.42102 -2.13209e-05
   1.44061 -1.98024e-05
   1.46019 -1.91449e-05
   1.47977 -1.81103e-05
   1.49935 -1.58887e-05
   1.51894 -1.17438e-05
   1.53852 -7.7068e-06
    1.5581 -4.23864e-06
   1.57768 9.73614e-07
   1.59727 7.25807e-06
   1.61685 1.11643e-05
   1.63643 1.1499e-05
   1.65601 1.05747e-05
    1.6756 1.17702e-05
   1.69518 1.45821e-05
   1.71314 1.77017e-05
   1.72902 1.97854e-05
   1.74403 2.01979e-05
   1.75821 2.00629e-05
    1.7716 2.07489e-05
   1.78426 2.16469e-05
   1.79621 2.20786e-05
   1.80751  2.222e-05
   1.81818 2.2638e-05
   1.82826 2.27706e-05
   1.83779 2.26524e-05
   1.84679 2.25059e-05
   1.85529 2.19054e-05
   1.86332 2.10153e-05
   1.87091 2.00027e-05
   1.87808 1.88779e-05
   1.88485 1.75877e-05
   1.89125 1.63847e-05
   1.89729 1.58398e-05
     1.903 1.58621e-05
    1.9084 1.61009e-05
    1.9135 1.65681e-05
   1.91831 1.7165e-05
   1.92286 1.74098e-05
   1.92716 1.71221e-05
   1.93122 1.63768e-05
   1.93506 1.5466e-05
   1.93868 1.47032e-05
   1.94211 1.40837e-05
   1.94534 1.35083e-05
    1.9484 1.2946e-05
   1.95129 1.23664e-05
   1.95401 1.17516e-05
   1.95659 1.11062e-05
   1.95903 1.04021e-05
   1.96133 9.5841e-06
    1.9635 8.62193e-06
   1.96555 7.54047e-06
   1.96749 6.39579e-06
   1.96933 5.23428e-06
   1.97106 4.08206e-06
   1.97269 2.96525e-06
   1.97424 1.91135e-06
    1.9757 9.3592e-07
   1.97708 3.72195e-08
   1.97838 -7.97017e-07
   1.97961 -1.58085e-06
   1.98077 -2.32696e-06
   1.98187 -3.04373e-06
   1.98291 -3.73267e-06
   1.98389 -4.38848e-06
   1.98482 -5.00035e-06
   1.98569 -5.55462e-06
   1.98652 -6.038e-06
    1.9873 -6.43986e-06
   1.98804 -6.75357e-06
   1.98874 -6.97702e-06
    1.9894 -7.11228e-06
   1.99002 -7.16472e-06
   1.99061 -7.14185e-06
   1.99116 -7.05213e-06
   1.99169 -6.9041e-06
   1.99218 -6.70583e-06
   1.99265 -6.46476e-06
    1.9931 -6.1837e-06
   1.99355 -5.85674e-06
   1.99399 -5.47976e-06
   1.99444 -5.05339e-06
   1.99488 -4.58009e-06
   1.99533 -4.06502e-06
   1.99577 -3.5169e-06
   1.99622 -2.94868e-06
   1.99666 -2.37775e-06
   1.99711 -1.82539e-06
   1.99755 -1.3152e-06
     1.998 -8.70343e-07
   1.99844 -5.10168e-07
   1.99889 -2.4665e-07
   1.99933 -8.19587e-08
   1.99978 -7.95826e-09
         2          0
