         0  0.0997162
 0.0002225  0.0997162
 0.0006675   0.898373
 0.0011125    2.49623
 0.0015575    4.88171
 0.0020025    8.01943
 0.0024475    11.8433
 0.0028925    16.2558
 0.0033375     21.134
 0.0037825    26.3395
 0.0042275    31.7295
 0.0046725    37.1676
 0.0051175    42.5319
 0.0055625    47.7192
 0.0060075    52.6476
 0.0064525    57.2567
 0.0068975    61.5051
 0.0073476    65.4164
0.00781612     69.068
0.00831203    72.4598
0.00883694    75.5361
0.00939255    78.2481
0.00998065    80.5557
 0.0106031    82.4286
  0.011262    83.8471
 0.0119594    84.8024
 0.0126977    85.2957
  0.013479    85.3374
 0.0143061    84.9462
 0.0151815    84.1473
 0.0161082    82.9709
  0.017089    81.4511
 0.0181271    79.6247
  0.019226    77.5294
 0.0203891    75.2037
 0.0216203    72.6858
 0.0229234    70.0127
 0.0243028    67.2203
 0.0257628    64.3426
 0.0273082    61.4118
  0.028944    58.4577
 0.0306754     55.508
 0.0325081    52.5874
 0.0344479    49.7179
 0.0365012    46.9181
 0.0386746    44.2029
  0.040975    41.5839
   0.04341    39.0703
 0.0459873    36.6688
 0.0487154    34.3835
  0.051603    32.2164
 0.0546595    30.1677
 0.0578947    28.2366
 0.0613191    26.4199
 0.0649437    24.7131
 0.0687803    23.1118
 0.0728413    21.6111
 0.0771397     20.206
 0.0816895    18.8912
 0.0865054    17.6623
 0.0916029    16.5146
 0.0969985    15.4425
   0.10271    14.4412
  0.108755    13.5057
  0.115153    12.6315
  0.121926    11.8159
  0.129095    11.0544
  0.136683    10.3425
  0.144715    9.67688
  0.153216    9.05356
  0.162214    8.46944
  0.171739    7.92438
  0.181821    7.41716
  0.192492    6.94273
  0.203788    6.49927
  0.215744    6.08565
  0.228399     5.6998
  0.241794    5.34226
  0.255972     5.0095
   0.27098     4.7048
  0.286865    4.38909
  0.304824    4.10402
  0.324407    3.80311
  0.343989    3.55841
  0.363571     3.3305
  0.383154    3.12404
  0.402736    2.93432
  0.422319    2.76338
  0.441901    2.60446
  0.461484    2.45561
  0.481066    2.31554
  0.500648    2.18537
  0.520231    2.06455
  0.539813    1.95122
  0.559396    1.84442
  0.578978    1.74341
   0.59856     1.6483
  0.618143    1.55876
  0.637725    1.47366
  0.657308    1.39337
   0.67689    1.31818
  0.696473    1.24737
  0.716055    1.18046
  0.735637    1.11925
   0.75522    1.06191
  0.774802    1.00865
  0.794385   0.959567
  0.813967   0.914773
  0.833549   0.874532
  0.853132    0.83843
  0.872714   0.805979
  0.892297   0.777752
  0.911879   0.754027
  0.931462   0.734842
  0.951044   0.720607
  0.970626   0.711524
  0.990209   0.707116
   1.00979    0.70709
   1.02937   0.711584
   1.04896   0.720319
   1.06854   0.733394
   1.08812   0.750154
    1.1077   0.771088
   1.12729   0.797011
   1.14687   0.828117
   1.16645   0.863306
   1.18603   0.902772
   1.20562   0.945767
    1.2252   0.993404
   1.24478    1.04559
   1.26436    1.10288
   1.28395    1.16321
   1.30353    1.22828
   1.32311    1.29783
   1.34269    1.37246
   1.36228    1.45179
   1.38186    1.53655
   1.40144    1.62679
   1.42102    1.72348
   1.44061     1.8262
   1.46019    1.93581
   1.47977    2.05332
   1.49935    2.17667
   1.51894    2.30827
   1.53852    2.45087
    1.5581    2.60483
   1.57768    2.77133
   1.59727    2.95471
   1.61685    3.15659
   1.63643     3.3773
   1.65601    3.61888
    1.6756    3.87518
   1.69518    4.18433
   1.71314    4.47687
   1.72902    4.79804
   1.74403    5.10755
   1.75821    5.44279
    1.7716    5.80155
   1.78426    6.18624
   1.79621    6.59448
   1.80751    7.02932
   1.81818    7.49347
   1.82826    7.99024
   1.83779    8.52275
   1.84679    9.09461
   1.85529    9.70765
   1.86332    10.3627
   1.87091    11.0644
   1.87808    11.8145
   1.88485    12.6163
   1.89125    13.4739
   1.89729    14.3901
     1.903    15.3692
    1.9084    16.4175
    1.9135      17.54
   1.91831    18.7417
   1.92286    20.0272
   1.92716    21.4018
   1.93122    22.8712
   1.93506    24.4404
   1.93868    26.1136
   1.94211    27.8953
   1.94534    29.7901
    1.9484    31.8014
   1.95129      33.93
   1.95401    36.1752
   1.95659    38.5346
   1.95903    41.0038
   1.96133    43.5759
    1.9635     46.241
   1.96555     48.987
   1.96749    51.7985
   1.96933    54.6578
   1.97106    57.5436
   1.97269    60.4316
   1.97424    63.2944
    1.9757    66.1024
   1.97708    68.8238
   1.97838    71.4253
   1.97961    73.8715
   1.98077    76.1259
   1.98187    78.1511
   1.98291    79.9095
   1.98389    81.3639
   1.98482     82.479
   1.98569    83.2217
   1.98652    83.5628
    1.9873    83.4783
   1.98804    82.9508
   1.98874    81.9709
    1.9894    80.5384
   1.99002     78.663
   1.99061     76.365
   1.99116    73.6749
   1.99169     70.633
   1.99218    67.2876
   1.99265    63.6937
    1.9931    59.8514
   1.99355    55.6851
   1.99399    51.1727
   1.99444    46.3551
   1.99488    41.2922
   1.99533     36.064
   1.99577    30.7709
   1.99622    25.5313
   1.99666    20.4767
   1.99711    15.7444
   1.99755    11.4674
     1.998     7.7633
   1.99844    4.72517
   1.99889    2.41601
   1.99933   0.869485
   1.99978  0.0965099
         2  0.0965099
