         0    166.565
 0.0002225    149.696
 0.0006675    121.316
 0.0011125    98.8474
 0.0015575    81.0084
 0.0020025    67.0561
 0.0024475    56.4771
 0.0028925    48.8234
 0.0033375    43.6521
 0.0037825     40.521
 0.0042275    39.0066
 0.0046725    38.7237
 0.0051175    39.3392
 0.0055625    40.5769
 0.0060075    42.2163
 0.0064525    44.0871
 0.0068975    46.0622
 0.0073476    48.0624
0.00781612    50.0698
0.00831203    52.0742
0.00883694    54.0237
0.00939255    55.8733
0.00998065    57.5856
 0.0106031    59.1311
  0.011262    60.4876
 0.0119594    61.6395
 0.0126977    62.5769
  0.013479    63.2948
 0.0143061    63.7923
 0.0151815     64.072
 0.0161082    64.1394
  0.017089    64.0014
 0.0181271    63.6664
  0.019226    63.1434
 0.0203891    62.4414
 0.0216203      61.57
 0.0229234    60.5387
 0.0243028    59.3573
 0.0257628    58.0365
 0.0273082    56.5868
  0.028944    55.0185
 0.0306754    53.3419
 0.0325081    51.5705
 0.0344479    49.7191
 0.0365012    47.8015
 0.0386746    45.8315
  0.040975    43.8242
   0.04341    41.7951
 0.0459873    39.7571
 0.0487154    37.7218
  0.051603    35.7019
 0.0546595    33.7129
 0.0578947    31.7728
 0.0613191     29.893
 0.0649437      28.08
 0.0687803    26.3395
 0.0728413    24.6778
 0.0771397    23.0989
 0.0816895    21.6026
 0.0865054      20.19
 0.0916029      18.86
 0.0969985    17.6107
   0.10271    16.4389
  0.108755    15.3424
  0.115153    14.3184
  0.121926    13.3636
  0.129095    12.4694
  0.136683    11.6283
  0.144715    10.8379
  0.153216    10.0952
  0.162214    9.39786
  0.171739    8.74928
  0.181821    8.14473
  0.192492     7.5828
  0.203788     7.0567
  0.215744    6.56828
  0.228399    6.11131
  0.241794    5.68359
  0.255972    5.28993
   0.27098    4.92267
  0.286865    4.50059
  0.304824    4.06404
  0.324407    3.75685
  0.343989    3.54404
  0.363571    3.34172
  0.383154      3.152
  0.402736    2.97721
  0.422319    2.81075
  0.441901    2.65805
  0.461484    2.51152
  0.481066    2.37071
  0.500648    2.24197
  0.520231    2.12026
  0.539813    2.00545
  0.559396    1.89635
  0.578978    1.79342
   0.59856    1.69864
  0.618143    1.60575
  0.637725      1.517
  0.657308    1.43408
   0.67689    1.35847
  0.696473    1.28541
  0.716055    1.21491
  0.735637    1.14945
   0.75522    1.08964
  0.774802    1.03223
  0.794385   0.979254
  0.813967   0.929449
  0.833549   0.884008
  0.853132   0.842572
  0.872714   0.806071
  0.892297   0.775219
  0.911879   0.749589
  0.931462   0.728647
  0.951044   0.713849
  0.970626    0.70453
  0.990209   0.700132
   1.00979   0.699066
   1.02937   0.702862
   1.04896    0.71347
   1.06854   0.728928
   1.08812   0.746149
    1.1077   0.768163
   1.12729   0.797009
   1.14687   0.831921
   1.16645   0.871187
   1.18603   0.913411
   1.20562   0.960829
    1.2252    1.01092
   1.24478    1.06678
   1.26436    1.12774
   1.28395    1.19193
   1.30353    1.26208
   1.32311    1.33671
   1.34269      1.415
   1.36228    1.49831
   1.38186    1.58698
   1.40144    1.67907
   1.42102    1.77471
   1.44061    1.87805
   1.46019    1.98878
   1.47977    2.10742
   1.49935    2.23163
   1.51894    2.36275
   1.53852    2.50453
    1.5581    2.65587
   1.57768      2.817
   1.59727    2.99343
   1.61685     3.1832
   1.63643    3.38654
   1.65601    3.60462
    1.6756    3.83215
   1.69518    4.14546
   1.71314    4.59032
   1.72902    5.02731
   1.74403    5.40203
   1.75821    5.80289
    1.7716     6.2333
   1.78426    6.69322
   1.79621    7.18469
   1.80751    7.70694
   1.81818     8.2621
   1.82826    8.85196
   1.83779    9.48587
   1.84679    10.1643
   1.85529    10.8904
   1.86332    11.6648
   1.87091    12.4913
   1.87808    13.3777
   1.88485    14.3263
   1.89125    15.3374
   1.89729    16.4127
     1.903    17.5573
    1.9084    18.7836
    1.9135    20.0947
   1.91831    21.4888
   1.92286    22.9601
   1.92716    24.5098
   1.93122    26.1401
   1.93506    27.8476
   1.93868    29.6259
   1.94211    31.4694
   1.94534    33.3674
    1.9484    35.3076
   1.95129    37.2801
   1.95401    39.2718
   1.95659    41.2673
   1.95903    43.2521
   1.96133    45.2142
    1.9635    47.1413
   1.96555    49.0191
   1.96749     50.833
   1.96933    52.5685
   1.97106     54.213
   1.97269    55.7549
   1.97424    57.1815
    1.9757    58.4794
   1.97708    59.6371
   1.97838    60.6439
   1.97961    61.4891
   1.98077    62.1636
   1.98187    62.6592
   1.98291    62.9682
   1.98389    63.0832
   1.98482    62.9968
   1.98569    62.7024
   1.98652    62.1949
    1.9873    61.4714
   1.98804    60.5324
   1.98874    59.3824
    1.9894    58.0308
   1.99002    56.4932
   1.99061    54.7922
   1.99116    52.9578
   1.99169     51.028
   1.99218    49.0483
   1.99265    47.0709
    1.9931    45.1067
   1.99355    43.1745
   1.99399    41.3538
   1.99444    39.7711
   1.99488    38.5945
   1.99533    38.0414
   1.99577    38.3825
   1.99622    39.9432
   1.99666    43.0978
   1.99711    48.2569
   1.99755    55.8478
     1.998    66.2985
   1.99844    80.0431
   1.99889    97.5812
   1.99933    119.638
   1.99978     147.46
         2    163.982
