         0   -48.8964
 0.0002225   -48.8834
 0.0006675   -48.8438
 0.0011125   -48.7629
 0.0015575   -48.6124
 0.0020025   -48.3656
 0.0024475   -47.9999
 0.0028925   -47.4991
 0.0033375   -46.8546
 0.0037825   -46.0654
 0.0042275   -45.1377
 0.0046725   -44.0832
 0.0051175   -42.9182
 0.0055625   -41.6611
 0.0060075   -40.3316
 0.0064525   -38.9495
 0.0068975   -37.5332
 0.0073476   -36.0836
0.00781612   -34.5731
0.00831203   -32.9892
0.00883694   -31.3452
0.00939255   -29.6563
0.00998065   -27.9387
 0.0106031   -26.2096
  0.011262   -24.4859
 0.0119594   -22.7841
 0.0126977   -21.1193
  0.013479   -19.5052
 0.0143061   -17.9537
 0.0151815   -16.4741
 0.0161082   -15.0738
  0.017089   -13.7579
 0.0181271   -12.5295
  0.019226   -11.3897
 0.0203891    -10.338
 0.0216203   -9.37268
 0.0229234   -8.49081
 0.0243028   -7.68875
 0.0257628   -6.96223
 0.0273082    -6.3066
  0.028944   -5.71694
 0.0306754   -5.18819
 0.0325081   -4.71529
 0.0344479   -4.29332
 0.0365012   -3.91762
 0.0386746   -3.58375
  0.040975   -3.28749
   0.04341   -3.02468
 0.0459873   -2.79142
 0.0487154   -2.58419
  0.051603   -2.39984
 0.0546595   -2.23542
 0.0578947   -2.08814
 0.0613191   -1.95562
 0.0649437     -1.836
 0.0687803   -1.72772
 0.0728413   -1.62924
 0.0771397   -1.53914
 0.0816895   -1.45612
 0.0865054    -1.3793
 0.0916029   -1.30818
 0.0969985   -1.24223
   0.10271   -1.18091
  0.108755   -1.12348
  0.115153   -1.06901
  0.121926   -1.01711
  0.129095  -0.968217
  0.136683  -0.922619
  0.144715   -0.87977
  0.153216  -0.838833
  0.162214  -0.799323
  0.171739  -0.761202
  0.181821  -0.724521
  0.192492  -0.689314
  0.203788  -0.656442
  0.215744  -0.626096
  0.228399  -0.598022
  0.241794  -0.571426
  0.255972  -0.546856
   0.27098  -0.523606
  0.286865  -0.502405
  0.304824  -0.484326
  0.324407  -0.464335
  0.343989  -0.442888
  0.363571  -0.423123
  0.383154  -0.405988
  0.402736  -0.390683
  0.422319  -0.375263
  0.441901  -0.360411
  0.461484  -0.347196
  0.481066  -0.334896
  0.500648  -0.323137
  0.520231  -0.312332
  0.539813   -0.30225
  0.559396  -0.292093
  0.578978  -0.281061
   0.59856  -0.270678
  0.618143  -0.261662
  0.637725  -0.252277
  0.657308  -0.241857
   0.67689  -0.231428
  0.696473  -0.220984
  0.716055  -0.209786
  0.735637  -0.198258
   0.75522  -0.186897
  0.774802  -0.175474
  0.794385  -0.164148
  0.813967  -0.152207
  0.833549   -0.13908
  0.853132  -0.124788
  0.872714  -0.109408
  0.892297 -0.0937292
  0.911879 -0.0777047
  0.931462  -0.061207
  0.951044  -0.044598
  0.970626 -0.0275625
  0.990209 -0.0103255
   1.00979 0.00701102
   1.02937  0.0242055
   1.04896  0.0407928
   1.06854  0.0574491
   1.08812  0.0745863
    1.1077  0.0914557
   1.12729   0.107608
   1.14687   0.122968
   1.16645   0.136621
   1.18603   0.149627
   1.20562   0.163416
    1.2252   0.177097
   1.24478    0.19001
   1.26436   0.202182
   1.28395   0.213589
   1.30353   0.224741
   1.32311   0.236145
   1.34269   0.247184
   1.36228   0.257138
   1.38186   0.266314
   1.40144   0.274679
   1.42102   0.283102
   1.44061   0.293211
   1.46019   0.304318
   1.47977   0.315016
   1.49935   0.325711
   1.51894   0.337426
   1.53852   0.350447
    1.5581   0.365169
   1.57768   0.380951
   1.59727   0.397785
   1.61685   0.416903
   1.63643   0.438225
   1.65601   0.459603
    1.6756   0.481509
   1.69518   0.503322
   1.71314   0.524087
   1.72902   0.547423
   1.74403   0.570855
   1.75821    0.59423
    1.7716   0.620102
   1.78426   0.647475
   1.79621   0.675685
   1.80751   0.703971
   1.81818   0.733531
   1.82826   0.765776
   1.83779    0.80121
   1.84679   0.839458
   1.85529    0.88036
   1.86332   0.923732
   1.87091   0.969231
   1.87808    1.01696
   1.88485    1.06707
   1.89125    1.11993
   1.89729     1.1764
     1.903    1.23709
    1.9084    1.30225
    1.9135    1.37217
   1.91831    1.44735
   1.92286    1.52883
   1.92716    1.61782
   1.93122    1.71534
   1.93506    1.82254
   1.93868    1.94069
   1.94211    2.07154
   1.94534    2.21745
    1.9484    2.38098
   1.95129    2.56464
   1.95401    2.77118
   1.95659    3.00379
   1.95903    3.26591
   1.96133    3.56131
    1.9635    3.89409
   1.96555    4.26874
   1.96749    4.68995
   1.96933    5.16247
   1.97106    5.69112
   1.97269    6.28076
   1.97424    6.93629
    1.9757    7.66253
   1.97708    8.46411
   1.97838    9.34527
   1.97961    10.3096
   1.98077      11.36
   1.98187     12.498
   1.98291     13.724
   1.98389    15.0366
   1.98482    16.4326
   1.98569    17.9066
   1.98652    19.4514
    1.9873     21.057
   1.98804    22.7118
   1.98874    24.4019
    1.9894    26.1123
   1.99002    27.8264
   1.99061    29.5274
   1.99116    31.1985
   1.99169    32.8235
   1.99218    34.3877
   1.99265    35.8778
    1.9931    37.3066
   1.99355    38.7011
   1.99399    40.0607
   1.99444    41.3671
   1.99488    42.6011
   1.99533    43.7436
   1.99577    44.7765
   1.99622    45.6845
   1.99666    46.4562
   1.99711     47.086
   1.99755     47.575
     1.998    47.9321
   1.99844    48.1731
   1.99889    48.3203
   1.99933    48.3996
   1.99978    48.4387
         2    48.4517
