         0   -48.6913
 0.0002225   -48.6783
 0.0006675   -48.6391
 0.0011125   -48.5592
 0.0015575   -48.4106
 0.0020025   -48.1665
 0.0024475   -47.8043
 0.0028925   -47.3076
 0.0033375   -46.6672
 0.0037825   -45.8817
 0.0042275    -44.957
 0.0046725   -43.9047
 0.0051175   -42.7408
 0.0055625   -41.4839
 0.0060075    -40.154
 0.0064525   -38.7711
 0.0068975    -37.354
 0.0073476   -35.9036
0.00781612   -34.3927
0.00831203   -32.8089
0.00883694   -31.1656
0.00939255    -29.478
0.00998065   -27.7624
 0.0106031   -26.0357
  0.011262   -24.3146
 0.0119594   -22.6152
 0.0126977   -20.9524
  0.013479   -19.3394
 0.0143061   -17.7877
 0.0151815   -16.3068
 0.0161082   -14.9041
  0.017089   -13.5847
 0.0181271   -12.3519
  0.019226   -11.2077
 0.0203891   -10.1528
 0.0216203   -9.18667
 0.0229234    -8.3067
 0.0243028   -7.50952
 0.0257628   -6.79179
 0.0273082   -6.14965
  0.028944   -5.57822
 0.0306754   -5.07342
 0.0325081   -4.63191
 0.0344479    -4.2465
 0.0365012   -3.90676
 0.0386746   -3.60489
  0.040975    -3.3348
   0.04341   -3.09026
 0.0459873   -2.86491
 0.0487154   -2.65302
  0.051603   -2.45553
 0.0546595   -2.27643
 0.0578947   -2.11642
 0.0613191   -1.97493
 0.0649437   -1.85157
 0.0687803   -1.74548
 0.0728413   -1.65271
 0.0771397   -1.56996
 0.0816895   -1.49214
 0.0865054   -1.40797
 0.0916029   -1.31687
 0.0969985   -1.24009
   0.10271   -1.19269
  0.108755   -1.16269
  0.115153   -1.12939
  0.121926   -1.08314
  0.129095   -1.03575
  0.136683  -0.992163
  0.144715  -0.939798
  0.153216  -0.891246
  0.162214  -0.858853
  0.171739   -0.82033
  0.181821  -0.754249
  0.192492  -0.672889
  0.203788  -0.621424
  0.215744  -0.602022
  0.228399   -0.57929
  0.241794  -0.551239
  0.255972  -0.516002
   0.27098  -0.478484
  0.286865  -0.464093
  0.304824  -0.462293
  0.324407  -0.452829
  0.343989  -0.437111
  0.363571  -0.427976
  0.383154  -0.417699
  0.402736  -0.386145
  0.422319  -0.369881
  0.441901  -0.363655
  0.461484  -0.337495
  0.481066  -0.336967
  0.500648  -0.369629
  0.520231  -0.376802
  0.539813  -0.356485
  0.559396  -0.344979
  0.578978   -0.32994
   0.59856   -0.30704
  0.618143  -0.293658
  0.637725  -0.273756
  0.657308  -0.255951
   0.67689  -0.248636
  0.696473  -0.229208
  0.716055  -0.200351
  0.735637  -0.169965
   0.75522  -0.146837
  0.774802  -0.128778
  0.794385    -0.1161
  0.813967  -0.114788
  0.833549   -0.11821
  0.853132  -0.125905
  0.872714  -0.129215
  0.892297   -0.12327
  0.911879  -0.113799
  0.931462 -0.0974509
  0.951044 -0.0773621
  0.970626 -0.0523084
  0.990209 -0.0222425
   1.00979    0.00273
   1.02937  0.0202294
   1.04896  0.0318235
   1.06854  0.0442027
   1.08812  0.0595498
    1.1077  0.0750907
   1.12729  0.0953102
   1.14687   0.121459
   1.16645   0.149341
   1.18603   0.171465
   1.20562   0.184676
    1.2252   0.194069
   1.24478   0.204355
   1.26436    0.21619
   1.28395   0.220131
   1.30353   0.218687
   1.32311   0.219651
   1.34269   0.224409
   1.36228   0.234823
   1.38186   0.244243
   1.40144   0.256165
   1.42102   0.287618
   1.44061   0.328545
   1.46019   0.348204
   1.47977   0.343674
   1.49935   0.344741
   1.51894   0.366423
   1.53852   0.377524
    1.5581   0.383979
   1.57768   0.412203
   1.59727   0.449761
   1.61685   0.480006
   1.63643   0.512266
   1.65601    0.54882
    1.6756   0.549264
   1.69518   0.537032
   1.71314   0.557429
   1.72902   0.571621
   1.74403   0.562764
   1.75821    0.57273
    1.7716    0.60008
   1.78426   0.621422
   1.79621   0.647765
   1.80751   0.670637
   1.81818   0.693553
   1.82826   0.729842
   1.83779    0.76582
   1.84679    0.81555
   1.85529   0.881896
   1.86332   0.938687
   1.87091   0.981764
   1.87808    1.02365
   1.88485    1.07098
   1.89125    1.11838
   1.89729    1.17451
     1.903    1.24651
    1.9084     1.3175
    1.9135    1.37935
   1.91831    1.44713
   1.92286    1.53691
   1.92716    1.64759
   1.93122    1.77112
   1.93506    1.89545
   1.93868    2.01631
   1.94211    2.14021
   1.94534    2.27479
    1.9484    2.42848
   1.95129    2.60578
   1.95401    2.80936
   1.95659    3.04495
   1.95903    3.31552
   1.96133     3.6175
    1.9635    3.94892
   1.96555    4.31371
   1.96749    4.71919
   1.96933    5.17366
   1.97106    5.68525
   1.97269    6.26161
   1.97424    6.90892
    1.9757    7.63017
   1.97708    8.42558
   1.97838    9.29506
   1.97961      10.24
   1.98077    11.2633
   1.98187    12.3687
   1.98291    13.5592
   1.98389    14.8366
   1.98482    16.2001
   1.98569    17.6459
   1.98652    19.1671
    1.9873    20.7536
   1.98804    22.3925
   1.98874    24.0686
    1.9894    25.7655
   1.99002    27.4662
   1.99061     29.153
   1.99116    30.8093
   1.99169    32.4188
   1.99218    33.9671
   1.99265    35.4414
    1.9931    36.8546
   1.99355    38.2337
   1.99399    39.5785
   1.99444    40.8712
   1.99488    42.0932
   1.99533    43.2259
   1.99577    44.2514
   1.99622    45.1544
   1.99666    45.9234
   1.99711    46.5521
   1.99755    47.0412
     1.998    47.3987
   1.99844      47.64
   1.99889     47.787
   1.99933    47.8658
   1.99978    47.9043
         2    47.9171
