         0    -1.0439
 0.0002225   -1.05141
 0.0006675   -3.16306
 0.0011125   -5.06083
 0.0015575   -6.51972
 0.0020025   -7.38352
 0.0024475   -7.57212
 0.0028925   -7.07711
 0.0033375   -5.94849
 0.0037825   -4.27661
 0.0042275   -2.17371
 0.0046725   0.241662
 0.0051175    2.85617
 0.0055625    5.56894
 0.0060075    8.29525
 0.0064525    10.9676
 0.0068975    13.5347
 0.0073476    15.9863
0.00781612    18.3559
0.00831203    20.6453
0.00883694    22.8165
0.00939255    24.8355
0.00998065    26.6741
 0.0106031    28.3099
  0.011262    29.7274
 0.0119594    30.9174
 0.0126977    31.8768
  0.013479    32.6077
 0.0143061     33.117
 0.0151815    33.4149
 0.0161082    33.5145
  0.017089      33.43
 0.0181271    33.1769
  0.019226    32.7707
 0.0203891    32.2266
 0.0216203    31.5596
 0.0229234    30.7837
 0.0243028    29.9129
 0.0257628    28.9602
 0.0273082    27.9381
  0.028944    26.8583
 0.0306754    25.7321
 0.0325081    24.5711
 0.0344479    23.3861
 0.0365012    22.1872
 0.0386746    20.9836
  0.040975    19.7847
   0.04341    18.5994
 0.0459873    17.4362
 0.0487154    16.3021
  0.051603    15.2036
 0.0546595    14.1462
 0.0578947     13.135
 0.0613191    12.1727
 0.0649437    11.2609
 0.0687803    10.4008
 0.0728413     9.5934
 0.0771397    8.83869
 0.0816895    8.13537
 0.0865054    7.48201
 0.0916029    6.87699
 0.0969985    6.31835
   0.10271    5.80349
  0.108755    5.32921
  0.115153    4.89234
  0.121926    4.49051
  0.129095    4.12107
  0.136683    3.78058
  0.144715    3.46665
  0.153216    3.17793
  0.162214    2.91171
  0.171739    2.66592
  0.181821    2.43968
  0.192492    2.23183
  0.203788    2.04056
  0.215744    1.86511
  0.228399    1.70531
  0.241794    1.55942
  0.255972    1.42531
   0.27098    1.30283
  0.286865    1.18945
  0.304824    1.07305
  0.324407    0.97879
  0.343989   0.902786
  0.363571   0.837696
  0.383154   0.780035
  0.402736   0.729718
  0.422319    0.68449
  0.441901   0.642835
  0.461484   0.604669
  0.481066     0.5687
  0.500648   0.535839
  0.520231    0.50545
  0.539813   0.477194
  0.559396   0.450027
  0.578978   0.424389
   0.59856   0.399864
  0.618143    0.37643
  0.637725   0.354113
  0.657308   0.331095
   0.67689   0.309561
  0.696473   0.288965
  0.716055   0.268995
  0.735637   0.249395
   0.75522   0.230114
  0.774802   0.211392
  0.794385   0.193002
  0.813967   0.175146
  0.833549   0.157094
  0.853132   0.138614
  0.872714   0.120252
  0.892297   0.101825
  0.911879  0.0833871
  0.931462  0.0649776
  0.951044   0.046336
  0.970626  0.0282444
  0.990209  0.0103372
   1.00979 -0.00752476
   1.02937 -0.0253508
   1.04896 -0.0428576
   1.06854 -0.0609258
   1.08812 -0.0794649
    1.1077 -0.0978053
   1.12729   -0.11626
   1.14687   -0.13477
   1.16645   -0.15321
   1.18603  -0.171356
   1.20562  -0.189993
    1.2252  -0.208612
   1.24478  -0.227955
   1.26436  -0.247903
   1.28395   -0.26852
   1.30353  -0.289201
   1.32311  -0.310835
   1.34269  -0.333028
   1.36228  -0.355927
   1.38186  -0.378832
   1.40144  -0.402095
   1.42102  -0.425837
   1.44061  -0.450757
   1.46019  -0.478912
   1.47977  -0.510086
   1.49935  -0.540992
   1.51894  -0.573973
   1.53852  -0.611863
    1.5581  -0.653275
   1.57768  -0.698484
   1.59727  -0.748337
   1.61685  -0.802967
   1.63643  -0.865049
   1.65601  -0.935732
    1.6756   -1.01536
   1.69518   -1.11303
   1.71314   -1.23647
   1.72902   -1.35494
   1.74403   -1.48063
   1.75821   -1.61478
    1.7716   -1.76048
   1.78426   -1.91795
   1.79621   -2.08908
   1.80751   -2.27511
   1.81818    -2.4769
   1.82826   -2.69676
   1.83779   -2.93627
   1.84679   -3.19772
   1.85529   -3.48269
   1.86332   -3.79228
   1.87091   -4.12835
   1.87808    -4.4932
   1.88485   -4.88927
   1.89125   -5.31969
   1.89729   -5.78596
     1.903   -6.29052
    1.9084    -6.8376
    1.9135   -7.42988
   1.91831   -8.06989
   1.92286   -8.75882
   1.92716   -9.49788
   1.93122   -10.2884
   1.93506    -11.131
   1.93868    -12.025
   1.94211   -12.9691
   1.94534    -13.961
    1.9484   -14.9973
   1.95129   -16.0733
   1.95401   -17.1841
   1.95659   -18.3234
   1.95903   -19.4842
   1.96133   -20.6582
    1.9635   -21.8366
   1.96555   -23.0105
   1.96749   -24.1699
   1.96933    -25.305
   1.97106   -26.4051
   1.97269   -27.4592
   1.97424    -28.456
    1.9757   -29.3833
   1.97708    -30.229
   1.97838   -30.9801
   1.97961   -31.6234
   1.98077   -32.1447
   1.98187   -32.5295
   1.98291   -32.7629
   1.98389   -32.8298
   1.98482   -32.7152
   1.98569   -32.4052
   1.98652   -31.8871
    1.9873   -31.1513
   1.98804   -30.1913
   1.98874   -29.0053
    1.9894   -27.5966
   1.99002   -25.9748
   1.99061   -24.1558
   1.99116   -22.1621
   1.99169   -20.0221
   1.99218   -17.7694
   1.99265   -15.4418
    1.9931   -13.0377
   1.99355   -10.5246
   1.99399   -7.91337
   1.99444    -5.2546
   1.99488    -2.6147
   1.99533 -0.0764725
   1.99577    2.26198
   1.99622    4.29102
   1.99666    5.89656
   1.99711    6.97121
   1.99755    7.42932
     1.998    7.22449
   1.99844    6.36676
   1.99889    4.93514
   1.99933    3.08154
   1.99978    1.02376
         2    1.01621
