         0    408.327
 0.0002225    405.151
 0.0006675    401.103
 0.0011125    398.204
 0.0015575    394.275
 0.0020025    387.714
 0.0024475    377.625
 0.0028925    363.894
 0.0033375    347.087
 0.0037825    328.206
 0.0042275    308.412
 0.0046725    288.786
 0.0051175    270.187
 0.0055625      253.2
 0.0060075    238.137
 0.0064525    225.085
 0.0068975    213.971
 0.0073476    204.472
0.00781612    196.165
0.00831203    188.878
0.00883694    182.485
0.00939255    176.817
0.00998065    171.679
 0.0106031    166.874
  0.011262    162.217
 0.0119594    157.552
 0.0126977    152.762
  0.013479    147.769
 0.0143061    142.533
 0.0151815    137.049
 0.0161082    131.337
  0.017089    125.434
 0.0181271    119.389
  0.019226    113.255
 0.0203891    107.085
 0.0216203    100.933
 0.0229234    94.8541
 0.0243028    88.8947
 0.0257628    83.0979
 0.0273082    77.5003
  0.028944    72.1341
 0.0306754    67.0238
 0.0325081    62.1855
 0.0344479    57.6315
 0.0365012    53.3714
 0.0386746    49.4112
  0.040975    45.7483
   0.04341    42.3695
 0.0459873    39.2555
 0.0487154    36.3879
  0.051603     33.752
 0.0546595    31.3268
 0.0578947    29.0878
 0.0613191    27.0189
 0.0649437    25.1115
 0.0687803    23.3504
 0.0728413      21.72
 0.0771397    20.2068
 0.0816895     18.801
 0.0865054    17.4918
 0.0916029    16.2733
 0.0969985    15.1367
   0.10271    14.0778
  0.108755    13.0924
  0.115153    12.1757
  0.121926     11.324
  0.129095    10.5302
  0.136683    9.78759
  0.144715    9.09665
  0.153216    8.45611
  0.162214    7.85711
  0.171739    7.29923
  0.181821    6.78078
  0.192492    6.29632
  0.203788    5.84225
  0.215744    5.42137
  0.228399    5.02932
  0.241794    4.66633
  0.255972    4.33144
   0.27098    4.02064
  0.286865    3.66053
  0.304824    3.27484
  0.324407    3.02593
  0.343989    2.85646
  0.363571     2.6994
  0.383154    2.54998
  0.402736    2.40949
  0.422319    2.27966
  0.441901    2.16286
  0.461484    2.05068
  0.481066    1.94494
  0.500648    1.84701
  0.520231    1.75355
  0.539813    1.66467
  0.559396    1.57924
  0.578978    1.49825
   0.59856    1.42306
  0.618143    1.35223
  0.637725    1.28631
  0.657308    1.22528
   0.67689    1.16673
  0.696473    1.10965
  0.716055    1.05571
  0.735637    1.00755
   0.75522   0.964016
  0.774802   0.923535
  0.794385   0.886991
  0.813967   0.853814
  0.833549   0.822478
  0.853132    0.79407
  0.872714   0.769783
  0.892297   0.748512
  0.911879   0.730618
  0.931462   0.716934
  0.951044   0.706458
  0.970626   0.699395
  0.990209   0.695792
   1.00979   0.694656
   1.02937   0.697158
   1.04896   0.703242
   1.06854   0.712997
   1.08812   0.725302
    1.1077   0.741153
   1.12729   0.760003
   1.14687    0.78174
   1.16645   0.808574
   1.18603   0.838519
   1.20562   0.871584
    1.2252   0.908972
   1.24478   0.950624
   1.26436   0.996139
   1.28395    1.04432
   1.30353    1.09509
   1.32311    1.14967
   1.34269    1.20771
   1.36228    1.26925
   1.38186    1.33579
   1.40144     1.4071
   1.42102    1.48263
   1.44061    1.56349
   1.46019    1.64901
   1.47977    1.73685
   1.49935    1.83091
   1.51894    1.93175
   1.53852    2.03826
    1.5581    2.15355
   1.57768      2.281
   1.59727    2.41591
   1.61685    2.56103
   1.63643    2.72121
   1.65601    2.89388
    1.6756    3.07468
   1.69518    3.33182
   1.71314    3.72518
   1.72902    4.08797
   1.74403    4.39771
   1.75821     4.7341
    1.7716    5.10004
   1.78426    5.48815
   1.79621    5.90218
   1.80751    6.34711
   1.81818    6.82391
   1.82826    7.33596
   1.83779    7.88947
   1.84679    8.48636
   1.85529     9.1272
   1.86332    9.81344
   1.87091    10.5478
   1.87808    11.3337
   1.88485    12.1727
   1.89125    13.0683
   1.89729    14.0293
     1.903    15.0632
    1.9084     16.176
    1.9135    17.3732
   1.91831    18.6559
   1.92286    20.0321
   1.92716     21.515
   1.93122    23.1192
   1.93506    24.8538
   1.93868    26.7272
   1.94211    28.7526
   1.94534    30.9514
    1.9484    33.3449
   1.95129    35.9472
   1.95401    38.7746
   1.95659    41.8447
   1.95903    45.1712
   1.96133     48.769
    1.9635     52.651
   1.96555    56.8267
   1.96749    61.2983
   1.96933    66.0577
   1.97106    71.0888
   1.97269    76.3693
   1.97424    81.8717
    1.9757    87.5652
   1.97708    93.4147
   1.97838    99.3786
   1.97961    105.408
   1.98077     111.45
   1.98187    117.452
   1.98291    123.359
   1.98389     129.12
   1.98482    134.687
   1.98569    140.026
   1.98652     145.12
    1.9873     149.98
   1.98804    154.647
   1.98874      159.2
    1.9894    163.756
   1.99002    168.467
   1.99061    173.513
   1.99116    179.084
   1.99169    185.367
   1.99218    192.524
   1.99265    200.671
    1.9931    209.972
   1.99355    220.834
   1.99399     233.56
   1.99444    248.212
   1.99488    264.694
   1.99533    282.693
   1.99577    301.636
   1.99622     320.69
   1.99666    338.817
   1.99711    354.913
   1.99755    368.033
     1.998    377.656
   1.99844    383.915
   1.99889    387.685
   1.99933    390.516
   1.99978    394.509
         2    397.635
