         0 2.91331e-05
  0.000445 2.91331e-05
  0.001335 0.000286811
  0.002225 0.000989877
  0.003115 0.00222324
  0.004005  0.0039664
  0.004895 0.00615475
  0.005785 0.00869957
  0.006675  0.0115031
0.00756867   0.014495
0.00852095  0.0178196
0.00958982  0.0215891
 0.0107896  0.0257295
 0.0121362  0.0301239
 0.0136477  0.0346005
 0.0153442  0.0389287
 0.0172484  0.0428287
 0.0193858  0.0459964
 0.0217849  0.0481391
 0.0244777  0.0490146
 0.0275001  0.0484646
 0.0308926  0.0464373
 0.0347005  0.0429938
 0.0389746  0.0383166
 0.0437719   0.032724
 0.0491566  0.0266477
 0.0552005  0.0205332
 0.0619844  0.0148072
 0.0695988 0.00982335
 0.0781455  0.0058201
 0.0877386 0.00286335
 0.0985062 0.000863199
  0.110592 -0.000376726
  0.124158 -0.00108306
  0.139384 -0.00148783
  0.156474 -0.00174152
  0.175657 -0.00192177
  0.197189 -0.00205164
  0.221357 -0.00212751
  0.248483 -0.00207006
  0.278931 -0.00241348
  0.314615 -0.00206362
   0.35378 -0.00148136
  0.392945 -0.00175089
   0.43211 -0.00188179
  0.471275 -0.00189854
   0.51044 -0.00194757
  0.549604 -0.00200227
  0.588769 -0.00202418
  0.627934 -0.00203892
  0.667099 -0.00201851
  0.706264 -0.0019319
  0.745429 -0.00181304
  0.784593 -0.00162485
  0.823758 -0.00142019
  0.862923 -0.00121606
  0.902088 -0.000931201
  0.941253 -0.000575176
  0.980418 -0.000220642
   1.01958 0.000153515
   1.05875 0.000536806
   1.09791 0.000882522
   1.13708 0.00120411
   1.17624 0.00145046
   1.21541 0.00165428
   1.25457 0.00180523
   1.29374 0.00191291
    1.3329 0.00196887
   1.37207 0.00197414
   1.41123 0.00199403
    1.4504 0.00198893
   1.48956 0.00193531
   1.52873 0.00185773
   1.56789 0.00177539
   1.60706 0.00167059
   1.64622 0.00148994
   1.68539 0.00208629
   1.72107 0.00240765
   1.75152 0.00207327
   1.77865 0.00210376
   1.80281 0.00206042
   1.82434 0.00196357
   1.84353 0.00183991
   1.86062 0.00156473
   1.87584 0.00113892
   1.88941 0.000408158
    1.9015 -0.000809171
   1.91226 -0.00276597
   1.92186 -0.00566646
    1.9304 -0.00963623
   1.93802 -0.0146209
    1.9448 -0.0203716
   1.95084 -0.0265117
   1.95623  -0.032583
   1.96103 -0.0381382
    1.9653  -0.042793
   1.96911 -0.0462338
    1.9725 -0.0482605
   1.97552 -0.0488052
   1.97822 -0.0479241
   1.98061 -0.0457814
   1.98275  -0.042621
   1.98466  -0.038734
   1.98635 -0.0344223
   1.98786 -0.0299639
   1.98921 -0.0255883
   1.99041 -0.0214665
   1.99148 -0.0177147
   1.99243 -0.0144067
   1.99333 -0.0114306
   1.99421 -0.00864283
    1.9951 -0.00611334
     1.996  -0.003939
   1.99689 -0.00220758
   1.99777 -0.000982826
   1.99867 -0.000284769
   1.99956 -2.89307e-05
         2 -2.89307e-05
