         0    43.5557
  0.000445    43.5557
  0.001335    43.4496
  0.002225    43.1938
  0.003115    42.6961
  0.004005    41.8856
  0.004895    40.7254
  0.005785    39.2192
  0.006675    37.4089
0.00756867    35.3552
0.00852095    32.9987
0.00958982    30.2767
 0.0107896    27.2684
 0.0121362    24.0959
 0.0136477    20.9051
 0.0153442     17.839
 0.0172484    15.0124
 0.0193858     12.497
 0.0217849    10.3206
 0.0244777    8.47684
 0.0275001    6.93887
 0.0308926    5.67042
 0.0347005    4.63281
 0.0389746    3.78976
 0.0437719    3.11002
 0.0491566    2.56663
 0.0552005     2.1358
 0.0619844    1.79794
 0.0695988    1.53622
 0.0781455    1.33471
 0.0877386    1.18004
 0.0985062    1.06073
  0.110592   0.966776
  0.124158   0.890671
  0.139384   0.828678
  0.156474   0.774499
  0.175657   0.725546
  0.197189    0.67991
  0.221357   0.640552
  0.248483   0.595024
  0.278931   0.554693
  0.314615   0.524905
   0.35378   0.478648
  0.392945   0.436869
   0.43211   0.405394
  0.471275   0.373923
   0.51044   0.344247
  0.549604   0.316687
  0.588769   0.290721
  0.627934   0.263159
  0.667099   0.238055
  0.706264   0.215217
  0.745429   0.190781
  0.784593   0.165142
  0.823758   0.138735
  0.862923   0.109362
  0.902088  0.0780345
  0.941253  0.0468395
  0.980418  0.0154273
   1.01958 -0.0166002
   1.05875 -0.0484068
   1.09791 -0.0792953
   1.13708  -0.109929
   1.17624  -0.140672
   1.21541  -0.166812
   1.25457  -0.190517
   1.29374  -0.215996
    1.3329  -0.242767
   1.37207  -0.266075
   1.41123  -0.290279
    1.4504  -0.314633
   1.48956  -0.336635
   1.52873  -0.363553
   1.56789  -0.397686
   1.60706  -0.433386
   1.64622  -0.479761
   1.68539  -0.526629
   1.72107  -0.559118
   1.75152  -0.600979
   1.77865  -0.644108
   1.80281  -0.682576
   1.82434  -0.725596
   1.84353  -0.773362
   1.86062  -0.828159
   1.87584  -0.892684
   1.88941  -0.969923
    1.9015   -1.06494
   1.91226   -1.18585
   1.92186   -1.34074
    1.9304   -1.54083
   1.93802   -1.80163
    1.9448   -2.14015
   1.95084   -2.57307
   1.95623   -3.11817
   1.96103   -3.79776
    1.9653   -4.64011
   1.96911   -5.67741
    1.9725   -6.94535
   1.97552   -8.48227
   1.97822   -10.3249
   1.98061   -12.5005
   1.98275   -15.0155
   1.98466   -17.8416
   1.98635   -20.9063
   1.98786   -24.0942
   1.98921   -27.2621
   1.99041    -30.264
   1.99148   -32.9785
   1.99243   -35.3269
   1.99333   -37.3722
   1.99421   -39.1737
    1.9951   -40.6716
     1.996   -41.8247
   1.99689   -42.6297
   1.99777   -43.1238
   1.99867   -43.3779
   1.99956   -43.4834
         2   -43.4834
