         0    2337.55
  0.000445    2337.55
  0.001335    2304.93
  0.002225    2263.13
  0.003115    2200.19
  0.004005    2109.09
  0.004895    1988.75
  0.005785    1843.85
  0.006675    1683.08
0.00756867     1515.7
0.00852095    1340.21
0.00958982    1157.59
 0.0107896    977.692
 0.0121362    809.769
 0.0136477     660.58
 0.0153442    533.472
 0.0172484    428.592
 0.0193858    343.881
 0.0217849    276.263
 0.0244777    222.571
 0.0275001    180.002
 0.0308926     146.24
 0.0347005    119.427
 0.0389746    98.0901
 0.0437719    81.0464
 0.0491566    67.3869
 0.0552005    56.4063
 0.0619844    47.4802
 0.0695988    40.1536
 0.0781455    34.0941
 0.0877386    29.0594
 0.0985062    24.8558
  0.110592    21.3302
  0.124158    18.3794
  0.139384     15.925
  0.156474    13.8611
  0.175657    12.1177
  0.197189    10.6337
  0.221357    9.37333
  0.248483    8.25968
  0.278931    7.18597
  0.314615    6.26953
   0.35378    5.56108
  0.392945    5.01377
   0.43211    4.51299
  0.471275    4.03627
   0.51044    3.59757
  0.549604    3.19305
  0.588769    2.82185
  0.627934    2.47441
  0.667099     2.1704
  0.706264    1.89396
  0.745429    1.64343
  0.784593    1.41963
  0.823758    1.23102
  0.862923    1.07644
  0.902088   0.959041
  0.941253   0.878257
  0.980418   0.837465
   1.01958   0.837326
   1.05875   0.876675
   1.09791   0.955855
   1.13708    1.07183
   1.17624    1.22519
   1.21541    1.40787
   1.25457    1.61944
   1.29374    1.86803
    1.3329    2.14593
   1.37207    2.45744
   1.41123    2.80174
    1.4504    3.16922
   1.48956    3.56703
   1.52873    4.00195
   1.56789    4.48011
   1.60706    4.99847
   1.64622    5.56089
   1.68539    6.27647
   1.72107    7.20245
   1.75152     8.2743
   1.77865    9.38251
   1.80281    10.6292
   1.82434    12.0898
   1.84353    13.8198
   1.86062    15.8787
   1.87584    18.3376
   1.88941    21.2828
    1.9015    24.8066
   1.91226    29.0137
   1.92186    34.0463
    1.9304    40.0852
   1.93802    47.3928
    1.9448    56.3279
   1.95084    67.3438
   1.95623    80.9889
   1.96103    98.0354
    1.9653    119.415
   1.96911     146.26
    1.9725    180.029
   1.97552    222.544
   1.97822    276.136
   1.98061    343.649
   1.98275    428.276
   1.98466    533.075
   1.98635    660.066
   1.98786    809.063
   1.98921    976.681
   1.99041    1156.13
   1.99148    1338.14
   1.99243    1512.88
   1.99333    1679.37
   1.99421    1839.09
    1.9951    1982.85
     1.996    2102.09
   1.99689    2192.23
   1.99777    2254.46
   1.99867     2295.8
   1.99956     2328.1
         2     2328.1
