         0 -3.25487e-05
  0.000445 -3.25487e-05
  0.001335 -0.000301543
  0.002225 -0.00101396
  0.003115 -0.0022337
  0.004005 -0.00396785
  0.004895 -0.00615033
  0.005785 -0.00868443
  0.006675 -0.0114786
0.00756867 -0.0144878
0.00852095 -0.0178246
0.00958982 -0.0215911
 0.0107896  -0.025728
 0.0121362 -0.0301186
 0.0136477 -0.0345872
 0.0153442 -0.0389017
 0.0172484 -0.0427834
 0.0193858 -0.0459312
 0.0217849 -0.0480559
 0.0244777  -0.048918
 0.0275001 -0.0483608
 0.0308926 -0.0463319
 0.0347005 -0.0428918
 0.0389746 -0.0382242
 0.0437719 -0.0326477
 0.0491566  -0.026585
 0.0552005  -0.020486
 0.0619844 -0.0147731
 0.0695988 -0.00980365
 0.0781455 -0.0058085
 0.0877386 -0.00286193
 0.0985062 -0.000862385
  0.110592 0.000367564
  0.124158 0.00108047
  0.139384 0.00147472
  0.156474 0.00174068
  0.175657 0.00190618
  0.197189 0.00205415
  0.221357 0.00211131
  0.248483 0.00207433
  0.278931 0.00240289
  0.314615 0.00205831
   0.35378 0.00148368
  0.392945 0.00174174
   0.43211 0.00188272
  0.471275 0.00189106
   0.51044 0.00194759
  0.549604 0.00199548
  0.588769 0.00202312
  0.627934  0.0020334
  0.667099 0.00201657
  0.706264 0.00192767
  0.745429  0.0018107
  0.784593 0.00162165
  0.823758 0.00141869
  0.862923 0.00121333
  0.902088 0.000930262
  0.941253 0.000573682
  0.980418 0.000221256
   1.01958 -0.000154641
   1.05875 -0.000534152
   1.09791 -0.000883138
   1.13708 -0.00120013
   1.17624 -0.00145034
   1.21541 -0.00164946
   1.25457 -0.0018046
   1.29374 -0.00190746
    1.3329 -0.00196803
   1.37207 -0.00196798
   1.41123 -0.00199358
    1.4504 -0.0019815
   1.48956 -0.00193562
   1.52873 -0.00184941
   1.56789 -0.00177698
   1.60706 -0.00166109
   1.64622 -0.00149284
   1.68539 -0.00207959
   1.72107 -0.00239997
   1.75152 -0.00207355
   1.77865 -0.00209276
   1.80281 -0.00205718
   1.82434 -0.00195476
   1.84353 -0.00183205
   1.86062  -0.001558
   1.87584 -0.0011306
   1.88941 -0.000404253
    1.9015 0.00081218
   1.91226 0.00276167
   1.92186 0.00565688
    1.9304 0.00961612
   1.93802   0.014588
    1.9448  0.0203248
   1.95084  0.0264478
   1.95623  0.0325045
   1.96103  0.0380487
    1.9653  0.0426927
   1.96911  0.0461281
    1.9725  0.0481562
   1.97552  0.0487089
   1.97822  0.0478419
   1.98061  0.0457172
   1.98275  0.0425763
   1.98466  0.0387072
   1.98635  0.0344092
   1.98786  0.0299588
   1.98921   0.025587
   1.99041  0.0214685
   1.99148  0.0177197
   1.99243  0.0143995
   1.99333  0.0114062
   1.99421 0.00862782
    1.9951 0.00610899
     1.996 0.00394046
   1.99689 0.00221795
   1.99777 0.00100671
   1.99867 0.000299369
   1.99956 3.23139e-05
         2 3.23139e-05
