         0 -0.000140765
  0.000445 -0.000140765
  0.001335 -0.000140824
  0.002225 -0.000141309
  0.003115 -0.000142648
  0.004005 -0.000145321
  0.004895 -0.000149766
  0.005785 -0.000156341
  0.006675 -0.000165309
0.00756867 -0.000176913
0.00852095 -0.000192247
0.00958982 -0.000213274
 0.0107896 -0.000241662
 0.0121362 -0.000279341
 0.0136477 -0.000328426
 0.0153442 -0.000391123
 0.0172484 -0.0004695
 0.0193858 -0.000565257
 0.0217849 -0.000679325
 0.0244777 -0.000811772
 0.0275001 -0.000961372
 0.0308926 -0.00112581
 0.0347005 -0.00130071
 0.0389746 -0.00147917
 0.0437719 -0.00165212
 0.0491566 -0.00181165
 0.0552005 -0.00195136
 0.0619844 -0.00206676
 0.0695988 -0.00215334
 0.0781455 -0.00220663
 0.0877386 -0.00223484
 0.0985062 -0.00225508
  0.110592 -0.00226536
  0.124158 -0.00225617
  0.139384 -0.00223195
  0.156474 -0.00221116
  0.175657 -0.00216654
  0.197189 -0.00210084
  0.221357 -0.00207156
  0.248483 -0.00203811
  0.278931 -0.00196813
  0.314615 -0.00187531
   0.35378 -0.0018674
  0.392945 -0.00176056
   0.43211 -0.00172122
  0.471275 -0.00163364
   0.51044 -0.00156464
  0.549604 -0.00151023
  0.588769 -0.00139393
  0.627934 -0.00134236
  0.667099 -0.00126802
  0.706264 -0.00117921
  0.745429 -0.00107517
  0.784593 -0.00100392
  0.823758 -0.0009335
  0.862923 -0.000874402
  0.902088 -0.000830413
  0.941253 -0.000818024
  0.980418 -0.000806585
   1.01958 -0.000814882
   1.05875 -0.000857228
   1.09791 -0.000906246
   1.13708 -0.000948059
   1.17624 -0.000996765
   1.21541 -0.00106663
   1.25457 -0.00109978
   1.29374 -0.00113645
    1.3329 -0.00121689
   1.37207 -0.00128908
   1.41123 -0.00136615
    1.4504 -0.00144869
   1.48956 -0.00156079
   1.52873 -0.00159514
   1.56789 -0.0016576
   1.60706 -0.00169119
   1.64622 -0.00173594
   1.68539 -0.00180252
   1.72107 -0.00183991
   1.75152 -0.00193058
   1.77865 -0.00201005
   1.80281 -0.00204825
   1.82434 -0.00208551
   1.84353 -0.00212045
   1.86062 -0.00213906
   1.87584 -0.00217608
   1.88941 -0.00220929
    1.9015 -0.00222805
   1.91226 -0.00222953
   1.92186 -0.00220829
    1.9304 -0.00215176
   1.93802 -0.00206421
    1.9448 -0.00195044
   1.95084 -0.00181334
   1.95623 -0.00165896
   1.96103 -0.00149219
    1.9653 -0.00131919
   1.96911 -0.00114787
    1.9725 -0.000985407
   1.97552 -0.000836819
   1.97822 -0.000705573
   1.98061 -0.00059292
   1.98275 -0.000498735
   1.98466 -0.000421808
   1.98635 -0.000360301
   1.98786 -0.000312127
   1.98921 -0.000275131
   1.99041 -0.000247213
   1.99148 -0.00022649
   1.99243 -0.000211345
   1.99333 -0.000199863
   1.99421 -0.000190976
    1.9951 -0.000184457
     1.996 -0.000180049
   1.99689 -0.000177401
   1.99777 -0.000176076
   1.99867 -0.000175598
   1.99956 -0.000175541
         2 -0.000175541
