         0 0.00178891
  0.000445 0.00178891
  0.001335 0.00178886
  0.002225 0.00178838
  0.003115 0.00178705
  0.004005  0.0017844
  0.004895 0.00177999
  0.005785 0.00177345
  0.006675 0.00176453
0.00756867 0.00175297
0.00852095 0.00173769
0.00958982 0.00171674
 0.0107896 0.00168845
 0.0121362 0.00165091
 0.0136477   0.001602
 0.0153442 0.00153954
 0.0172484 0.00146149
 0.0193858 0.00136621
 0.0217849 0.00125277
 0.0244777 0.00112129
 0.0275001 0.000973165
 0.0308926 0.000811295
 0.0347005 0.000640133
 0.0389746 0.000465607
 0.0437719 0.000294752
 0.0491566 0.00013493
 0.0552005 -7.03568e-06
 0.0619844 -0.000125639
 0.0695988 -0.000217492
 0.0781455 -0.000281971
 0.0877386 -0.000321041
 0.0985062 -0.000338819
  0.110592 -0.00033971
  0.124158 -0.000328738
  0.139384 -0.00030815
  0.156474 -0.000280851
  0.175657 -0.000244709
  0.197189 -0.00020319
  0.221357 -0.000150505
  0.248483 -9.50949e-05
  0.278931 -3.0971e-05
  0.314615 6.53683e-05
   0.35378 0.00012086
  0.392945 0.000181584
   0.43211 0.000257289
  0.471275 0.000329057
   0.51044 0.000405415
  0.549604 0.000481611
  0.588769 0.00056172
  0.627934 0.000640081
  0.667099 0.000720996
  0.706264 0.000798039
  0.745429 0.000871989
  0.784593 0.00093987
  0.823758 0.000999013
  0.862923   0.001051
  0.902088 0.00109405
  0.941253 0.00112386
  0.980418 0.00113899
   1.01958 0.00114119
   1.05875 0.00112688
   1.09791 0.00109935
   1.13708  0.0010577
   1.17624 0.00100535
   1.21541 0.000944095
   1.25457 0.000876146
   1.29374 0.000802741
    1.3329 0.000726734
   1.37207 0.000648585
   1.41123 0.000572583
    1.4504 0.000492428
   1.48956 0.000417372
   1.52873 0.000340811
   1.56789 0.000272507
   1.60706 0.00020162
   1.64622 0.000142394
   1.68539 8.46861e-05
   1.72107 -1.11528e-05
   1.75152 -7.55248e-05
   1.77865 -0.00013067
   1.80281 -0.000182693
   1.82434 -0.000224932
   1.84353 -0.000262296
   1.86062 -0.000291629
   1.87584 -0.000312941
   1.88941 -0.000324628
    1.9015 -0.000323987
   1.91226 -0.000307068
   1.92186 -0.000269156
    1.9304 -0.000206238
   1.93802 -0.000115852
    1.9448 1.5446e-06
   1.95084 0.000142633
   1.95623 0.000301756
   1.96103 0.000471854
    1.9653 0.000645549
   1.96911 0.000815931
    1.9725 0.000977108
   1.97552 0.00112461
   1.97822 0.00125552
   1.98061 0.00136843
   1.98275 0.00146326
   1.98466 0.00154093
   1.98635 0.00160307
   1.98786 0.00165172
   1.98921 0.00168906
   1.99041 0.00171719
   1.99148 0.00173802
   1.99243 0.00175321
   1.99333 0.00176469
   1.99421 0.00177356
    1.9951 0.00178005
     1.996 0.00178443
   1.99689 0.00178706
   1.99777 0.00178838
   1.99867 0.00178885
   1.99956 0.00178891
         2 0.00178891
