         0 4.54199e-05
  0.000445 4.54199e-05
  0.001335 4.53789e-05
  0.002225 4.53661e-05
  0.003115 4.53932e-05
  0.004005 4.54552e-05
  0.004895 4.55468e-05
  0.005785 4.56635e-05
  0.006675 4.58009e-05
0.00756867 4.59539e-05
0.00852095 4.61262e-05
0.00958982 4.63275e-05
 0.0107896 4.6557e-05
 0.0121362 4.68096e-05
 0.0136477 4.70757e-05
 0.0153442 4.73412e-05
 0.0172484 4.75875e-05
 0.0193858 4.77913e-05
 0.0217849 4.79253e-05
 0.0244777 4.79584e-05
 0.0275001 4.78576e-05
 0.0308926 4.75898e-05
 0.0347005 4.71267e-05
 0.0389746 4.64489e-05
 0.0437719 4.55504e-05
 0.0491566 4.44412e-05
 0.0552005 4.31476e-05
 0.0619844 4.17092e-05
 0.0695988 4.01761e-05
 0.0781455 3.86092e-05
 0.0877386 3.70687e-05
 0.0985062 3.55999e-05
  0.110592 3.42331e-05
  0.124158 3.29961e-05
  0.139384 3.18863e-05
  0.156474 3.08794e-05
  0.175657 2.99658e-05
  0.197189 2.91074e-05
  0.221357 2.83101e-05
  0.248483 2.75015e-05
  0.278931 2.66634e-05
  0.314615 2.58358e-05
   0.35378 2.47163e-05
  0.392945 2.36766e-05
   0.43211 2.26841e-05
  0.471275 2.17254e-05
   0.51044 2.08181e-05
  0.549604 1.99733e-05
  0.588769 1.92112e-05
  0.627934 1.84868e-05
  0.667099 1.78308e-05
  0.706264 1.72399e-05
  0.745429 1.67128e-05
  0.784593 1.62514e-05
  0.823758 1.58643e-05
  0.862923 1.55592e-05
  0.902088 1.53255e-05
  0.941253 1.51693e-05
  0.980418 1.5084e-05
   1.01958 1.50749e-05
   1.05875 1.51453e-05
   1.09791 1.52988e-05
   1.13708 1.55297e-05
   1.17624 1.58329e-05
   1.21541 1.62103e-05
   1.25457 1.66477e-05
   1.29374 1.71565e-05
    1.3329 1.77429e-05
   1.37207 1.83619e-05
   1.41123 1.90641e-05
    1.4504 1.98065e-05
   1.48956 2.06139e-05
   1.52873 2.14787e-05
   1.56789 2.24316e-05
   1.60706 2.3449e-05
   1.64622 2.45169e-05
   1.68539 2.56572e-05
   1.72107 2.65071e-05
   1.75152 2.73468e-05
   1.77865 2.81445e-05
   1.80281 2.89498e-05
   1.82434 2.97977e-05
   1.84353 3.07024e-05
   1.86062 3.16984e-05
   1.87584 3.27941e-05
   1.88941 3.40176e-05
    1.9015 3.53694e-05
   1.91226 3.68247e-05
   1.92186 3.83527e-05
    1.9304 3.99027e-05
   1.93802 4.14168e-05
    1.9448 4.28416e-05
   1.95084 4.41261e-05
   1.95623 4.52288e-05
   1.96103 4.61224e-05
    1.9653 4.67958e-05
   1.96911 4.72547e-05
    1.9725 4.7519e-05
   1.97552 4.76173e-05
   1.97822 4.7582e-05
   1.98061 4.74462e-05
   1.98275 4.72408e-05
   1.98466 4.69935e-05
   1.98635 4.67274e-05
   1.98786 4.64613e-05
   1.98921 4.62092e-05
   1.99041 4.59803e-05
   1.99148 4.57798e-05
   1.99243 4.56082e-05
   1.99333 4.5456e-05
   1.99421 4.53194e-05
    1.9951 4.52033e-05
     1.996 4.51123e-05
   1.99689 4.50506e-05
   1.99777 4.50236e-05
   1.99867 4.50363e-05
   1.99956 4.50769e-05
         2 4.50769e-05
