         0          0
  0.000445  0.0192863
  0.001335  0.0578084
  0.002225  0.0961905
  0.003115   0.134257
  0.004005   0.171756
  0.004895   0.208389
  0.005785   0.243839
  0.006675   0.277815
0.00756867   0.310211
0.00852095   0.342702
0.00958982    0.37648
 0.0107896   0.410981
 0.0121362    0.44557
 0.0136477   0.479613
 0.0153442   0.512549
 0.0172484   0.543934
 0.0193858   0.573462
 0.0217849   0.600967
 0.0244777   0.626426
 0.0275001   0.649915
 0.0308926   0.671513
 0.0347005   0.691319
 0.0389746   0.709523
 0.0437719   0.726137
 0.0491566   0.741147
 0.0552005   0.754846
 0.0619844   0.767725
 0.0695988   0.780356
 0.0781455   0.792569
 0.0877386    0.80461
 0.0985062   0.816904
  0.110592   0.828926
  0.124158   0.841113
  0.139384   0.853423
  0.156474   0.867165
  0.175657   0.882528
  0.197189   0.899369
  0.221357   0.916977
  0.248483    0.93335
  0.278931   0.949809
  0.314615   0.969628
   0.35378   0.986733
  0.392945    1.00187
   0.43211    1.01982
  0.471275    1.03548
   0.51044    1.04795
  0.549604    1.05992
  0.588769    1.07129
  0.627934    1.08311
  0.667099    1.09189
  0.706264    1.10008
  0.745429    1.10802
  0.784593    1.11629
  0.823758     1.1235
  0.862923    1.12791
  0.902088     1.1309
  0.941253    1.13411
  0.980418    1.13611
   1.01958    1.13647
   1.05875    1.13527
   1.09791    1.13144
   1.13708    1.12723
   1.17624    1.12161
   1.21541    1.11682
   1.25457    1.11122
   1.29374    1.10302
    1.3329    1.09288
   1.37207    1.08154
   1.41123    1.07153
    1.4504    1.06109
   1.48956    1.04931
   1.52873    1.03779
   1.56789     1.0249
   1.60706     1.0108
   1.64622   0.993834
   1.68539   0.973724
   1.72107   0.953493
   1.75152   0.934701
   1.77865   0.917263
   1.80281    0.90129
   1.82434   0.885164
   1.84353   0.869968
   1.86062    0.85572
   1.87584   0.841196
   1.88941   0.827374
    1.9015   0.814852
   1.91226   0.802247
   1.92186   0.789904
    1.9304   0.777948
   1.93802   0.765537
    1.9448   0.752143
   1.95084    0.73813
   1.95623   0.723275
   1.96103    0.70719
    1.9653   0.689605
   1.96911    0.67035
    1.9725   0.649271
   1.97552   0.626243
   1.97822   0.601202
   1.98061   0.574101
   1.98275   0.544934
   1.98466    0.51382
   1.98635   0.481045
   1.98786   0.447064
   1.98921   0.412462
   1.99041   0.377898
   1.99148   0.344027
   1.99243   0.311431
   1.99333   0.278918
   1.99421   0.244814
    1.9951   0.209226
     1.996   0.172449
   1.99689     0.1348
   1.99777  0.0965798
   1.99867  0.0580421
   1.99956   0.019364
         2          0
