         0          0
  0.000445  0.0192858
  0.001335  0.0578072
  0.002225  0.0961884
  0.003115   0.134254
  0.004005   0.171753
  0.004895   0.208385
  0.005785   0.243835
  0.006675   0.277812
0.00756867   0.310209
0.00852095   0.342701
0.00958982   0.376482
 0.0107896   0.410986
 0.0121362   0.445577
 0.0136477   0.479622
 0.0153442    0.51256
 0.0172484   0.543946
 0.0193858   0.573475
 0.0217849    0.60098
 0.0244777    0.62644
 0.0275001   0.649929
 0.0308926   0.671525
 0.0347005   0.691326
 0.0389746   0.709524
 0.0437719   0.726136
 0.0491566   0.741144
 0.0552005   0.754842
 0.0619844   0.767729
 0.0695988   0.780368
 0.0781455   0.792577
 0.0877386   0.804606
 0.0985062   0.816899
  0.110592   0.828927
  0.124158   0.841115
  0.139384   0.853416
  0.156474    0.86716
  0.175657   0.882538
  0.197189   0.899376
  0.221357    0.91697
  0.248483   0.933348
  0.278931   0.949813
  0.314615   0.969628
   0.35378    0.98673
  0.392945    1.00187
   0.43211    1.01982
  0.471275    1.03548
   0.51044    1.04795
  0.549604    1.05992
  0.588769    1.07129
  0.627934    1.08311
  0.667099    1.09189
  0.706264    1.10008
  0.745429    1.10802
  0.784593    1.11628
  0.823758     1.1235
  0.862923    1.12791
  0.902088     1.1309
  0.941253    1.13411
  0.980418    1.13611
   1.01958    1.13647
   1.05875    1.13527
   1.09791    1.13144
   1.13708    1.12723
   1.17624    1.12161
   1.21541    1.11682
   1.25457    1.11122
   1.29374    1.10302
    1.3329    1.09288
   1.37207    1.08153
   1.41123    1.07153
    1.4504    1.06109
   1.48956    1.04931
   1.52873    1.03779
   1.56789    1.02491
   1.60706    1.01081
   1.64622   0.993835
   1.68539   0.973725
   1.72107   0.953492
   1.75152   0.934701
   1.77865   0.917263
   1.80281   0.901291
   1.82434   0.885167
   1.84353    0.86997
   1.86062   0.855722
   1.87584   0.841197
   1.88941   0.827372
    1.9015   0.814843
   1.91226   0.802231
   1.92186   0.789893
    1.9304   0.777941
   1.93802   0.765527
    1.9448   0.752137
   1.95084   0.738133
   1.95623   0.723279
   1.96103   0.707193
    1.9653   0.689608
   1.96911   0.670353
    1.9725   0.649276
   1.97552    0.62625
   1.97822   0.601208
   1.98061   0.574106
   1.98275   0.544939
   1.98466   0.513825
   1.98635    0.48105
   1.98786   0.447066
   1.98921   0.412463
   1.99041   0.377898
   1.99148   0.344027
   1.99243    0.31143
   1.99333   0.278918
   1.99421   0.244813
    1.9951   0.209225
     1.996   0.172448
   1.99689   0.134799
   1.99777  0.0965792
   1.99867  0.0580417
   1.99956  0.0193639
         2          0
