         0          0
  0.000445 -3.72151e-05
  0.001335 -0.000698417
  0.002225 -0.00306026
  0.003115 -0.00796761
  0.004005 -0.0156863
  0.004895 -0.0257437
  0.005785  -0.037052
  0.006675 -0.0482548
0.00756867 -0.0581629
0.00852095 -0.0663539
0.00958982  -0.072131
 0.0107896 -0.0745219
 0.0121362 -0.0731556
 0.0136477 -0.0684033
 0.0153442 -0.0612422
 0.0172484    -0.0529
 0.0193858 -0.0444709
 0.0217849 -0.0366825
 0.0244777 -0.0298667
 0.0275001 -0.0240746
 0.0308926 -0.0192172
 0.0347005 -0.0151621
 0.0389746 -0.0117762
 0.0437719 -0.00896183
 0.0491566 -0.00665653
 0.0552005 -0.00480144
 0.0619844 -0.00335014
 0.0695988 -0.00226552
 0.0781455 -0.00149292
 0.0877386 -0.000942236
 0.0985062 -0.000545022
  0.110592 -0.00023834
  0.124158 1.85994e-05
  0.139384 0.000249639
  0.156474 0.000441399
  0.175657 0.000629298
  0.197189 0.000783594
  0.221357 0.000956961
  0.248483 0.00106182
  0.278931 0.00126774
  0.314615 0.00140388
   0.35378 0.00152174
  0.392945  0.0016566
   0.43211 0.00172936
  0.471275 0.00182023
   0.51044 0.00190957
  0.549604 0.00199094
  0.588769  0.0020502
  0.627934 0.00211091
  0.667099 0.00216663
  0.706264 0.00221458
  0.745429  0.0022553
  0.784593 0.00229033
  0.823758 0.00231566
  0.862923 0.00233161
  0.902088 0.00235051
  0.941253 0.00235622
  0.980418 0.00235602
   1.01958 0.00235417
   1.05875 0.00235269
   1.09791 0.00234127
   1.13708 0.00232249
   1.17624 0.00229802
   1.21541 0.00228257
   1.25457 0.00224045
   1.29374 0.00220392
    1.3329 0.00215028
   1.37207  0.0021173
   1.41123 0.00203917
    1.4504 0.00199219
   1.48956   0.001907
   1.52873 0.00181973
   1.56789  0.0017102
   1.60706 0.00163008
   1.64622 0.00148986
   1.68539 0.00140377
   1.72107 0.00125383
   1.75152 0.00107432
   1.77865 0.000952248
   1.80281 0.000793809
   1.82434 0.000627678
   1.84353 0.000439759
   1.86062 0.00023597
   1.87584 1.66629e-05
   1.88941 -0.000230541
    1.9015 -0.000538481
   1.91226 -0.000937464
   1.92186 -0.00148203
    1.9304 -0.00225447
   1.93802 -0.00333897
    1.9448 -0.00479494
   1.95084 -0.00665853
   1.95623 -0.00895832
   1.96103 -0.0117582
    1.9653 -0.0151365
   1.96911 -0.0191852
    1.9725  -0.024034
   1.97552 -0.0298212
   1.97822 -0.0366383
   1.98061 -0.0444286
   1.98275 -0.0528485
   1.98466 -0.0611657
   1.98635 -0.0682865
   1.98786 -0.0729871
   1.98921 -0.0742971
   1.99041 -0.0718551
   1.99148  -0.066042
   1.99243 -0.0578366
   1.99333 -0.0479375
   1.99421 -0.0367699
    1.9951 -0.0255202
     1.996 -0.0155337
   1.99689 -0.00788264
   1.99777 -0.00302523
   1.99867 -0.000689997
   1.99956 -3.67478e-05
         2          0
