         0          0
  0.000445 -0.00041219
  0.001335 -0.000899444
  0.002225 -0.00114984
  0.003115 -0.00124478
  0.004005 -0.00124086
  0.004895 -0.00117678
  0.005785 -0.0010783
  0.006675 -0.000961095
0.00756867 -0.000832898
0.00852095 -0.000690117
0.00958982 -0.000526191
 0.0107896 -0.00033825
 0.0121362 -0.000122809
 0.0136477 0.000122004
 0.0153442 0.000393814
 0.0172484 0.000683421
 0.0193858 0.000973568
 0.0217849 0.00124004
 0.0244777 0.00145525
 0.0275001 0.00159356
 0.0308926  0.0016372
 0.0347005 0.00158096
 0.0389746 0.00143494
 0.0437719 0.00122408
 0.0491566 0.000981973
 0.0552005 0.000742172
 0.0619844 0.00053453
 0.0695988 0.000379028
 0.0781455 0.000280723
 0.0877386 0.000230612
 0.0985062 0.000211293
  0.110592 0.000204778
  0.124158 0.000201355
  0.139384 0.00019885
  0.156474 0.000188071
  0.175657 0.000178504
  0.197189 0.000166147
  0.221357 0.000152319
  0.248483 0.000133186
  0.278931 0.000114429
  0.314615 0.00010505
   0.35378 7.54757e-05
  0.392945 6.18119e-05
   0.43211 5.53146e-05
  0.471275 4.69089e-05
   0.51044 3.65083e-05
  0.549604 3.18353e-05
  0.588769 2.9644e-05
  0.627934 2.28219e-05
  0.667099 2.07201e-05
  0.706264 1.75145e-05
  0.745429 1.40864e-05
  0.784593 1.20575e-05
  0.823758 1.14495e-05
  0.862923 1.06299e-05
  0.902088 9.03777e-06
  0.941253 8.04379e-06
  0.980418 9.18905e-06
   1.01958 1.0297e-05
   1.05875 1.06408e-05
   1.09791 1.15268e-05
   1.13708 1.23311e-05
   1.17624 1.28808e-05
   1.21541 1.34322e-05
   1.25457 1.49176e-05
   1.29374 1.50979e-05
    1.3329 1.94218e-05
   1.37207 2.18934e-05
   1.41123 2.58207e-05
    1.4504 2.99477e-05
   1.48956 3.58187e-05
   1.52873 4.47703e-05
   1.56789 5.54815e-05
   1.60706 6.31419e-05
   1.64622 7.74598e-05
   1.68539 0.000104633
   1.72107 0.000113768
   1.75152 0.000132293
   1.77865 0.000151072
   1.80281 0.00016494
   1.82434 0.000179595
   1.84353 0.000192706
   1.86062 0.000202624
   1.87584 0.000204768
   1.88941 0.000204129
    1.9015 0.000207061
   1.91226 0.000227235
   1.92186 0.000281121
    1.9304 0.000381857
   1.93802 0.000535688
    1.9448 0.000740536
   1.95084 0.000978301
   1.95623 0.00121951
   1.96103 0.00142784
    1.9653 0.00157134
   1.96911 0.00162721
    1.9725 0.00158528
   1.97552 0.00144979
   1.97822 0.00123743
   1.98061 0.000973268
   1.98275 0.000684921
   1.98466 0.000396834
   1.98635 0.00012646
   1.98786 -0.000116938
   1.98921 -0.000331019
   1.99041 -0.000517718
   1.99148 -0.000680561
   1.99243 -0.000822431
   1.99333 -0.000949853
   1.99421 -0.0010664
    1.9951 -0.00116441
     1.996 -0.00122834
   1.99689 -0.00123267
   1.99777 -0.00113902
   1.99867 -0.000891267
   1.99956 -0.000408589
         2          0
