         0          0
  0.000445   -9.82626
  0.001335   -34.5144
  0.002225   -88.5147
  0.003115   -190.296
  0.004005    -346.11
  0.004895   -547.029
  0.005785   -771.569
  0.006675   -992.776
0.00756867   -1187.02
0.00852095   -1345.79
0.00958982   -1455.02
 0.0107896   -1495.49
 0.0121362   -1460.24
 0.0136477   -1357.35
 0.0153442   -1207.05
 0.0172484   -1034.48
 0.0193858   -861.952
 0.0217849   -704.302
 0.0244777   -568.399
 0.0275001   -455.467
 0.0308926   -363.821
 0.0347005   -290.606
 0.0389746   -232.514
 0.0437719   -186.546
 0.0491566    -150.38
 0.0552005   -121.901
 0.0619844    -99.321
 0.0695988   -81.4898
 0.0781455   -67.4869
 0.0877386   -56.3074
 0.0985062   -47.4302
  0.110592   -40.3105
  0.124158   -34.5528
  0.139384   -29.7488
  0.156474   -26.1962
  0.175657   -22.8582
  0.197189   -20.3823
  0.221357   -17.6862
  0.248483   -16.6126
  0.278931   -13.5379
  0.314615   -11.8654
   0.35378   -11.1611
  0.392945   -9.47974
   0.43211   -8.67392
  0.471275   -7.64478
   0.51044   -6.84873
  0.549604   -5.94324
  0.588769   -5.32975
  0.627934   -4.72666
  0.667099   -4.03426
  0.706264   -3.58057
  0.745429   -3.20358
  0.784593   -2.83782
  0.823758   -2.56221
  0.862923   -2.44554
  0.902088   -2.23953
  0.941253   -2.12039
  0.980418   -2.05814
   1.01958   -2.09206
   1.05875   -2.10806
   1.09791   -2.22687
   1.13708   -2.40454
   1.17624   -2.66899
   1.21541   -2.69372
   1.25457   -3.18935
   1.29374   -3.57779
    1.3329   -4.16407
   1.37207   -4.41243
   1.41123   -5.38644
    1.4504   -5.73236
   1.48956   -6.68054
   1.52873   -7.57451
   1.56789   -8.78404
   1.60706   -9.53395
   1.64622   -11.3648
   1.68539   -11.7615
   1.72107   -13.8863
   1.75152   -16.3954
   1.77865   -17.8423
   1.80281    -20.205
   1.82434   -22.8307
   1.84353   -26.0413
   1.86062   -29.8596
   1.87584    -34.615
   1.88941   -40.2803
    1.9015   -47.4698
   1.91226   -56.3524
   1.92186   -67.3112
    1.9304   -81.2496
   1.93802   -99.1979
    1.9448   -121.982
   1.95084   -150.664
   1.95623   -186.648
   1.96103   -232.327
    1.9653   -290.377
   1.96911   -363.538
    1.9725   -454.978
   1.97552   -567.708
   1.97822    -703.55
   1.98061   -861.202
   1.98275   -1033.56
   1.98466   -1205.65
   1.98635   -1355.15
   1.98786   -1456.99
   1.98921   -1491.07
   1.99041   -1449.53
   1.99148   -1339.52
   1.99243   -1180.41
   1.99333   -986.297
   1.99421   -765.747
    1.9951    -542.34
     1.996   -342.818
   1.99689   -188.352
   1.99777   -87.5923
   1.99867   -34.1782
   1.99956   -9.74357
         2          0
