         0          0
  0.000445 0.000444518
  0.001335 0.00399254
  0.002225  0.0110513
  0.003115  0.0215098
  0.004005  0.0351387
  0.004895  0.0515709
  0.005785  0.0703153
  0.006675  0.0907993
0.00756867   0.112521
0.00852095   0.136357
0.00958982   0.163183
 0.0107896   0.192601
 0.0121362   0.224005
 0.0136477   0.256659
 0.0153442   0.289797
 0.0172484   0.322731
 0.0193858   0.354912
 0.0217849   0.385947
 0.0244777   0.415585
 0.0275001    0.44369
 0.0308926   0.470213
 0.0347005   0.495169
 0.0389746   0.518627
 0.0437719   0.540698
 0.0491566   0.561541
 0.0552005   0.581352
 0.0619844   0.600365
 0.0695988   0.618865
 0.0781455   0.637162
 0.0877386   0.655562
 0.0985062   0.674383
  0.110592   0.693918
  0.124158   0.714434
  0.139384   0.736167
  0.156474    0.75942
  0.175657   0.784242
  0.197189   0.810925
  0.221357   0.839423
  0.248483   0.870406
  0.278931   0.902476
  0.314615   0.939343
   0.35378    0.97769
  0.392945    1.01252
   0.43211    1.04569
  0.471275    1.07663
   0.51044    1.10567
  0.549604    1.13258
  0.588769    1.15776
  0.627934    1.18092
  0.667099    1.20192
  0.706264    1.22119
  0.745429     1.2386
  0.784593    1.25391
  0.823758    1.26708
  0.862923    1.27796
  0.902088    1.28611
  0.941253    1.29157
  0.980418    1.29429
   1.01958    1.29427
   1.05875    1.29139
   1.09791     1.2858
   1.13708    1.27755
   1.17624    1.26667
   1.21541    1.25316
   1.25457    1.23789
   1.29374    1.22049
    1.3329    1.20108
   1.37207    1.17942
   1.41123    1.15648
    1.4504    1.13126
   1.48956    1.10484
   1.52873    1.07663
   1.56789    1.04655
   1.60706    1.01375
   1.64622   0.979096
   1.68539   0.940373
   1.72107   0.903538
   1.75152   0.870894
   1.77865     0.8398
   1.80281   0.811066
   1.82434   0.784369
   1.84353   0.759537
   1.86062   0.736338
   1.87584   0.714576
   1.88941   0.693995
    1.9015   0.674388
   1.91226   0.655476
   1.92186   0.636974
    1.9304   0.618605
   1.93802   0.600061
    1.9448   0.581012
   1.95084   0.561159
   1.95623   0.540261
   1.96103   0.518134
    1.9653   0.494631
   1.96911   0.469641
    1.9725   0.443096
   1.97552   0.414981
   1.97822   0.385344
   1.98061   0.354319
   1.98275   0.322152
   1.98466   0.289234
   1.98635   0.256118
   1.98786   0.223492
   1.98921   0.192122
   1.99041   0.162745
   1.99148   0.135965
   1.99243   0.112177
   1.99333  0.0905065
   1.99421  0.0700771
    1.9951  0.0513888
     1.996  0.0350105
   1.99689  0.0214295
   1.99777  0.0110095
   1.99867 0.00397736
   1.99956 0.00044283
         2          0
