         0          0
  0.000445 1.49263e-09
  0.001335 9.20277e-08
  0.002225 5.83874e-07
  0.003115 1.94023e-06
  0.004005 4.63341e-06
  0.004895 9.09081e-06
  0.005785 1.56717e-05
  0.006675 2.46495e-05
0.00756867 3.62676e-05
0.00852095 5.16709e-05
0.00958982 7.27967e-05
 0.0107896 0.000101328
 0.0121362 0.000139209
 0.0136477 0.000188586
 0.0153442 0.000251678
 0.0172484 0.000330568
 0.0193858 0.000426922
 0.0217849 0.000541673
 0.0244777 0.000674707
 0.0275001 0.000824592
 0.0308926 0.000988416
 0.0347005 0.00116172
 0.0389746  0.0013386
 0.0437719 0.00151212
 0.0491566 0.00167506
 0.0552005 0.00182077
 0.0619844 0.00194386
 0.0695988  0.0020413
 0.0781455 0.00211225
 0.0877386 0.00215918
 0.0985062 0.00218583
  0.110592 0.00219788
  0.124158 0.00219913
  0.139384 0.00219568
  0.156474 0.00218682
  0.175657 0.00217658
  0.197189 0.00216273
  0.221357 0.00214633
  0.248483 0.00212766
  0.278931 0.00210942
  0.314615 0.00206629
   0.35378 0.00200338
  0.392945 0.00191374
   0.43211 0.00181321
  0.471275 0.00171028
   0.51044  0.0016063
  0.549604 0.00150306
  0.588769 0.00139817
  0.627934 0.00129697
  0.667099 0.00119418
  0.706264 0.00109986
  0.745429 0.00100878
  0.784593 0.000926639
  0.823758 0.000854932
  0.862923 0.000793977
  0.902088 0.00074369
  0.941253 0.000709417
  0.980418 0.000691403
   1.01958 0.000689892
   1.05875 0.000705673
   1.09791 0.000738654
   1.13708 0.000786652
   1.17624 0.000849431
   1.21541 0.000921115
   1.25457 0.00100432
   1.29374 0.00109216
    1.3329 0.00118859
   1.37207 0.00128616
   1.41123 0.00138704
    1.4504  0.0014901
   1.48956 0.00159339
   1.52873 0.00169793
   1.56789 0.00179562
   1.60706 0.00189524
   1.64622 0.00198131
   1.68539  0.0020495
   1.72107 0.00208855
   1.75152 0.00210898
   1.77865 0.00212658
   1.80281 0.00214275
   1.82434 0.00215585
   1.84353 0.00216853
   1.86062 0.00217799
   1.87584 0.00218358
   1.88941 0.00218219
    1.9015 0.00217097
   1.91226 0.00214488
   1.92186 0.00209937
    1.9304 0.00202983
   1.93802 0.00193405
    1.9448  0.0018121
   1.95084 0.00166732
   1.95623 0.00150508
   1.96103 0.00133232
    1.9653 0.00115626
   1.96911 0.000983739
    1.9725 0.000820612
   1.97552 0.000671356
   1.97822 0.000538901
   1.98061 0.000424675
   1.98275 0.000328781
   1.98466 0.00025028
   1.98635 0.000187509
   1.98786 0.000138392
   1.98921 0.000100716
   1.99041 7.23445e-05
   1.99148 5.13415e-05
   1.99243 3.60309e-05
   1.99333 2.44851e-05
   1.99421 1.55649e-05
    1.9951 9.02772e-06
     1.996 4.60078e-06
   1.99689 1.92643e-06
   1.99777 5.79715e-07
   1.99867 9.13796e-08
   1.99956 1.48359e-09
         2          0
