         0          0
  0.000445 2.18642e-05
  0.001335 0.000163947
  0.002225 0.000395321
  0.003115 0.00067744
  0.004005 0.00098212
  0.004895 0.00128964
  0.005785 0.00158727
  0.006675 0.00186768
0.00756867 0.00212845
0.00852095 0.00238416
0.00958982  0.0026417
 0.0107896  0.0028954
 0.0121362 0.00313902
 0.0136477 0.00336613
 0.0153442 0.00357081
 0.0172484  0.0037484
 0.0193858   0.003896
 0.0217849 0.00401256
 0.0244777 0.00409856
 0.0275001 0.00415534
 0.0308926 0.00418446
 0.0347005 0.00418746
 0.0389746 0.00416567
 0.0437719 0.00412081
 0.0491566  0.0040553
 0.0552005 0.00397227
 0.0619844 0.00387659
 0.0695988 0.00377335
 0.0781455 0.00366765
 0.0877386 0.00356441
 0.0985062 0.00346846
  0.110592 0.00338304
  0.124158 0.00330803
  0.139384  0.0032436
  0.156474 0.00318951
  0.175657 0.00313673
  0.197189 0.00308112
  0.221357 0.00302504
  0.248483  0.0029662
  0.278931 0.00287616
  0.314615 0.00279325
   0.35378 0.00265644
  0.392945 0.00251581
   0.43211 0.00236674
  0.471275 0.00220881
   0.51044 0.00203432
  0.549604 0.00186497
  0.588769 0.00169863
  0.627934 0.00153677
  0.667099 0.00138956
  0.706264 0.00124559
  0.745429 0.00110987
  0.784593 0.000992074
  0.823758 0.00088415
  0.862923 0.000795901
  0.902088 0.000726091
  0.941253 0.000678353
  0.980418 0.000654007
   1.01958 0.000653516
   1.05875 0.000675439
   1.09791 0.000719522
   1.13708 0.000786088
   1.17624 0.000876436
   1.21541 0.000981587
   1.25457 0.00109328
   1.29374 0.00121803
    1.3329 0.00135891
   1.37207 0.00150828
   1.41123 0.00167269
    1.4504 0.00183533
   1.48956 0.00198616
   1.52873 0.00215478
   1.56789 0.00231748
   1.60706 0.00248075
   1.64622  0.0026282
   1.68539 0.00275799
   1.72107 0.00283305
   1.75152 0.00291399
   1.77865 0.00298021
   1.80281 0.00303402
   1.82434 0.00308608
   1.84353 0.00313559
   1.86062 0.00319209
   1.87584 0.00325815
   1.88941 0.00333584
    1.9015 0.00342683
   1.91226 0.00352936
   1.92186 0.00363902
    1.9304    0.00375
   1.93802 0.00385686
    1.9448 0.00395396
   1.95084 0.00403585
   1.95623 0.00409869
   1.96103  0.0041395
    1.9653 0.00415785
   1.96911 0.00415308
    1.9725  0.0041233
   1.97552 0.00406665
   1.97822 0.00398127
   1.98061 0.00386565
   1.98275 0.00371921
   1.98466 0.00354287
   1.98635 0.00333949
   1.98786 0.00311377
   1.98921 0.00287166
   1.99041 0.00261959
   1.99148 0.00236379
   1.99243 0.00210992
   1.99333 0.00185112
   1.99421 0.00157294
    1.9951 0.00127778
     1.996 0.000972929
   1.99689 0.000671001
   1.99777 0.000391514
   1.99867 0.000162353
   1.99956 2.16504e-05
         2          0
