         0          0
  0.000445 -6.57548e-08
  0.001335 -2.60365e-06
  0.002225 -1.2506e-05
  0.003115 -3.47392e-05
  0.004005 -7.29736e-05
  0.004895 -0.000129086
  0.005785 -0.000202877
  0.006675 -0.000292158
0.00756867 -0.000393741
0.00852095 -0.000510547
0.00958982 -0.00064612
 0.0107896 -0.000796511
 0.0121362 -0.000955548
 0.0136477 -0.00111586
 0.0153442 -0.00127026
 0.0172484 -0.00141298
 0.0193858 -0.00154031
 0.0217849 -0.00165052
 0.0244777 -0.00174324
 0.0275001 -0.00181892
 0.0308926 -0.00187842
 0.0347005 -0.00192281
 0.0389746 -0.00195324
 0.0437719 -0.00197128
 0.0491566 -0.00197985
 0.0552005 -0.00198081
 0.0619844 -0.00197647
 0.0695988 -0.00196759
 0.0781455 -0.00195672
 0.0877386 -0.00194221
 0.0985062 -0.00192778
  0.110592 -0.00190487
  0.124158 -0.00188837
  0.139384 -0.00185365
  0.156474 -0.00183946
  0.175657 -0.00178645
  0.197189 -0.00178617
  0.221357 -0.00170197
  0.248483 -0.00173064
  0.278931 -0.00162394
  0.314615 -0.00159204
   0.35378 -0.00156427
  0.392945 -0.00137459
   0.43211 -0.00134699
  0.471275 -0.00119162
   0.51044 -0.00114455
  0.549604 -0.00100461
  0.588769 -0.000948987
  0.627934 -0.000825924
  0.667099 -0.00075406
  0.706264 -0.000651107
  0.745429 -0.000569367
  0.784593 -0.000472768
  0.823758 -0.000394265
  0.862923 -0.000295604
  0.902088 -0.000216534
  0.941253 -0.000123997
  0.980418 -4.93139e-05
   1.01958 5.65719e-05
   1.05875 0.000115158
   1.09791 0.000232053
   1.13708 0.000285191
   1.17624 0.000406267
   1.21541 0.000461949
   1.25457 0.000583213
   1.29374 0.00063762
    1.3329 0.000764232
   1.37207 0.000816883
   1.41123 0.000955333
    1.4504 0.000993763
   1.48956 0.00115413
   1.52873 0.00117728
   1.56789 0.00135742
   1.60706 0.00136388
   1.64622 0.00157091
   1.68539 0.00157326
   1.72107 0.00163438
   1.75152 0.00170935
   1.77865 0.00171343
   1.80281 0.00176921
   1.82434 0.00179303
   1.84353 0.00182481
   1.86062 0.00185513
   1.87584 0.00187927
   1.88941 0.00190368
    1.9015  0.0019219
   1.91226  0.0019388
   1.92186 0.00195122
    1.9304 0.00196268
   1.93802 0.00197165
    1.9448 0.00197648
   1.95084 0.00197596
   1.95623 0.00196734
   1.96103 0.00194867
    1.9653 0.00191826
   1.96911 0.00187412
    1.9725 0.00181477
   1.97552 0.00173915
   1.97822 0.00164647
   1.98061 0.00153631
   1.98275 0.00140902
   1.98466 0.00126635
   1.98635 0.00111205
   1.98786 0.000951904
   1.98921 0.000793119
   1.99041 0.000643062
   1.99148 0.000507884
   1.99243 0.000391501
   1.99333 0.000290354
   1.99421 0.000201523
    1.9951 0.000128159
     1.996 7.24147e-05
   1.99689 3.44578e-05
   1.99777 1.23997e-05
   1.99867 2.58052e-06
   1.99956 6.51241e-08
         2          0
