         0          0
  0.000445 1.21122e-05
  0.001335 3.63219e-05
  0.002225 6.04504e-05
  0.003115 8.43885e-05
  0.004005 0.000108007
  0.004895 0.000131179
  0.005785 0.000153803
  0.006675 0.000175815
0.00756867 0.000197276
0.00852095 0.000219457
0.00958982 0.000243525
 0.0107896 0.000269566
 0.0121362 0.000297652
 0.0136477 0.000327788
 0.0153442 0.000359831
 0.0172484 0.000393415
 0.0193858 0.000427841
 0.0217849 0.000461874
 0.0244777 0.000493704
 0.0275001 0.000521218
 0.0308926 0.000542172
 0.0347005 0.000554075
 0.0389746 0.000555053
 0.0437719 0.000545752
 0.0491566 0.000528354
 0.0552005 0.000504763
 0.0619844 0.000477307
 0.0695988 0.000446051
 0.0781455 0.000409291
 0.0877386 0.000381398
 0.0985062 0.000372159
  0.110592 0.000363967
  0.124158 0.000386618
  0.139384 0.000437279
  0.156474 0.000513565
  0.175657 0.000567152
  0.197189 0.000550649
  0.221357 0.000547392
  0.248483 0.000620555
  0.278931 0.000631537
  0.314615 0.000676767
   0.35378 0.000686389
  0.392945 0.000721913
   0.43211 0.000717255
  0.471275 0.000780659
   0.51044 0.000676557
  0.549604 0.000709487
  0.588769 0.000583772
  0.627934 0.000569522
  0.667099 0.000631567
  0.706264 0.000645685
  0.745429 0.000611191
  0.784593 0.000556891
  0.823758 0.000344048
  0.862923 9.86514e-05
  0.902088 -0.000100641
  0.941253 -3.01632e-05
  0.980418 -1.57658e-05
   1.01958 -1.63651e-05
   1.05875 -5.83438e-05
   1.09791 -7.99639e-05
   1.13708 -0.000151437
   1.17624 -0.000274006
   1.21541 -0.000403393
   1.25457 -0.000519683
   1.29374 -0.000617101
    1.3329 -0.000841082
   1.37207 -0.00101334
   1.41123 -0.00113662
    1.4504 -0.00109211
   1.48956 -0.00101844
   1.52873 -0.000965822
   1.56789 -0.000946556
   1.60706 -0.000863217
   1.64622 -0.000711364
   1.68539 -0.000669574
   1.72107 -0.000481698
   1.75152 -0.000368413
   1.77865 -0.000357413
   1.80281 -0.000331844
   1.82434 -0.000241931
   1.84353 -0.000250274
   1.86062 -0.000255875
   1.87584 -0.000262734
   1.88941 -0.000279387
    1.9015 -0.000297434
   1.91226 -0.000308924
   1.92186 -0.000327141
    1.9304 -0.000345931
   1.93802 -0.00035834
    1.9448 -0.000362945
   1.95084 -0.000368601
   1.95623 -0.000378176
   1.96103 -0.000389769
    1.9653 -0.000400743
   1.96911 -0.000405454
    1.9725 -0.000401365
   1.97552 -0.000390657
   1.97822 -0.000376039
   1.98061 -0.000358771
   1.98275 -0.000339237
   1.98466 -0.000317619
   1.98635 -0.000294326
   1.98786 -0.000270094
   1.98921 -0.000245792
   1.99041 -0.000222199
   1.99148 -0.00019987
   1.99243 -0.000179125
   1.99333 -0.00015908
   1.99421 -0.000138655
    1.9951 -0.00011786
     1.996 -9.67719e-05
   1.99689 -7.54607e-05
   1.99777 -5.39915e-05
   1.99867 -3.24247e-05
   1.99956 -1.08118e-05
         2          0
