         0          0
  0.000445 -7.05549e-08
  0.001335 -2.63967e-06
  0.002225 -1.25751e-05
  0.003115 -3.47938e-05
  0.004005 -7.29534e-05
  0.004895 -0.00012893
  0.005785 -0.000202531
  0.006675 -0.000291602
0.00756867 -0.000393005
0.00852095 -0.000509584
0.00958982 -0.000644766
 0.0107896 -0.000794529
 0.0121362 -0.000952582
 0.0136477 -0.00111137
 0.0153442 -0.00126351
 0.0172484 -0.00140312
 0.0193858 -0.00152658
 0.0217849 -0.0016325
 0.0244777 -0.00172116
 0.0275001 -0.00179376
 0.0308926 -0.00185188
 0.0347005 -0.00189711
 0.0389746 -0.00193089
 0.0437719 -0.00195443
 0.0491566 -0.00196876
 0.0552005  -0.001975
 0.0619844 -0.00197399
 0.0695988 -0.00196672
 0.0781455 -0.00195393
 0.0877386 -0.00193683
 0.0985062 -0.0019157
  0.110592 -0.00189171
  0.124158 -0.00186416
  0.139384 -0.00183568
  0.156474 -0.00180331
  0.175657 -0.00177232
  0.197189 -0.00173633
  0.221357 -0.00170257
  0.248483 -0.00166277
  0.278931 -0.00162862
  0.314615 -0.00157548
   0.35378 -0.00149353
  0.392945 -0.00139186
   0.43211 -0.00129681
  0.471275 -0.0011994
   0.51044 -0.00110703
  0.549604 -0.00101275
  0.588769 -0.000920706
  0.627934 -0.000829896
  0.667099 -0.000739052
  0.706264 -0.000651477
  0.745429 -0.000562697
  0.784593 -0.000474663
  0.823758 -0.000387012
  0.862923 -0.000301145
  0.902088 -0.000215026
  0.941253 -0.000129202
  0.980418 -4.36821e-05
   1.01958 4.16842e-05
   1.05875 0.000126979
   1.09791 0.00021176
   1.13708 0.000297798
   1.17624 0.00038328
   1.21541 0.000470245
   1.25457 0.000557594
   1.29374 0.000644293
    1.3329 0.000733469
   1.37207 0.000821855
   1.41123 0.000913814
    1.4504 0.00100208
   1.48956 0.00109694
   1.52873 0.00118897
   1.56789 0.00128473
   1.60706 0.00138166
   1.64622 0.00148061
   1.68539 0.00156536
   1.72107 0.00161654
   1.75152 0.00165246
   1.77865  0.0016929
   1.80281 0.00172846
   1.82434 0.00176379
   1.84353 0.00179704
   1.86062 0.00182871
   1.87584 0.00185851
   1.88941 0.00188606
    1.9015 0.00191057
   1.91226 0.00193173
   1.92186 0.00194914
    1.9304  0.0019621
   1.93802 0.00196979
    1.9448 0.00197099
   1.95084 0.00196478
   1.95623 0.00195039
   1.96103 0.00192694
    1.9653 0.00189321
   1.96911 0.00184804
    1.9725    0.00179
   1.97552 0.00171747
   1.97822 0.00162887
   1.98061 0.00152296
   1.98275 0.00139949
   1.98466 0.00125986
   1.98635 0.00110776
   1.98786 0.000949094
   1.98921 0.000791256
   1.99041 0.000641797
   1.99148 0.000506986
   1.99243 0.000390812
   1.99333 0.000289832
   1.99421  0.0002012
    1.9951 0.000128017
     1.996 7.24013e-05
   1.99689 3.4515e-05
   1.99777 1.24693e-05
   1.99867 2.61644e-06
   1.99956 6.98853e-08
         2          0
