         0          0
  0.000445 2.18439e-05
  0.001335 0.000163784
  0.002225 0.000394908
  0.003115 0.000676701
  0.004005 0.000981003
  0.004895 0.00128812
  0.005785 0.00158533
  0.006675 0.00186532
0.00756867 0.00212568
0.00852095 0.00238097
0.00958982 0.00263809
 0.0107896 0.00289134
 0.0121362 0.00313451
 0.0136477 0.00336119
 0.0153442 0.00356547
 0.0172484 0.00374269
 0.0193858 0.00388997
 0.0217849 0.00400625
 0.0244777   0.004092
 0.0275001 0.00414856
 0.0308926 0.00417747
 0.0347005 0.00418027
 0.0389746 0.00415831
 0.0437719 0.00411334
 0.0491566 0.00404781
 0.0552005 0.00396485
 0.0619844 0.00386932
 0.0695988 0.00376631
 0.0781455 0.00366091
 0.0877386 0.00355809
 0.0985062 0.00346264
  0.110592 0.00337782
  0.124158 0.00330335
  0.139384 0.00323936
  0.156474 0.00318567
  0.175657 0.00313322
  0.197189 0.00307802
  0.221357 0.00302247
  0.248483 0.00296392
  0.278931 0.00287422
  0.314615 0.00279104
   0.35378 0.00265421
  0.392945 0.00251341
   0.43211 0.00236411
  0.471275 0.00220586
   0.51044 0.00203157
  0.549604 0.00186241
  0.588769  0.0016965
  0.627934 0.00153478
  0.667099 0.00138749
  0.706264 0.00124363
  0.745429 0.00110805
  0.784593 0.000990458
  0.823758 0.000882926
  0.862923 0.000795113
  0.902088 0.000725614
  0.941253 0.000677965
  0.980418 0.000653536
   1.01958 0.000652786
   1.05875 0.00067438
   1.09791 0.000718269
   1.13708 0.000784664
   1.17624 0.000874702
   1.21541 0.000979816
   1.25457  0.0010912
   1.29374 0.00121585
    1.3329  0.0013561
   1.37207 0.00150498
   1.41123 0.00166883
    1.4504 0.00183141
   1.48956 0.00198267
   1.52873 0.00215162
   1.56789 0.00231446
   1.60706 0.00247789
   1.64622 0.00262502
   1.68539 0.00275475
   1.72107 0.00282915
   1.75152 0.00291015
   1.77865 0.00297568
   1.80281 0.00302964
   1.82434 0.00308128
   1.84353  0.0031303
   1.86062 0.00318624
   1.87584 0.00325178
   1.88941 0.00332897
    1.9015 0.00341941
   1.91226 0.00352141
   1.92186 0.00363066
    1.9304 0.00374137
   1.93802  0.0038481
    1.9448 0.00394517
   1.95084 0.00402712
   1.95623  0.0040901
   1.96103 0.00413111
    1.9653 0.00414975
   1.96911 0.00414531
    1.9725 0.00411592
   1.97552 0.00405967
   1.97822  0.0039747
   1.98061  0.0038595
   1.98275 0.00371347
   1.98466 0.00353755
   1.98635  0.0033346
   1.98786 0.00310932
   1.98921 0.00286764
   1.99041 0.00261601
   1.99148 0.00236064
   1.99243 0.00210718
   1.99333 0.00184878
   1.99421 0.00157101
    1.9951 0.00127627
     1.996 0.00097182
   1.99689 0.000670266
   1.99777 0.000391104
   1.99867 0.000162191
   1.99956 2.16302e-05
         2          0
