         0          0
  0.000445 1.49195e-09
  0.001335 9.1968e-08
  0.002225 5.8346e-07
  0.003115 1.93877e-06
  0.004005 4.62978e-06
  0.004895 9.08346e-06
  0.005785 1.56587e-05
  0.006675 2.46286e-05
0.00756867 3.62362e-05
0.00852095 5.16257e-05
0.00958982 7.27323e-05
 0.0107896 0.000101238
 0.0121362 0.000139084
 0.0136477 0.000188417
 0.0153442 0.000251455
 0.0172484 0.000330278
 0.0193858 0.000426554
 0.0217849 0.000541218
 0.0244777 0.000674155
 0.0275001 0.000823938
 0.0308926 0.000987657
 0.0347005 0.00116086
 0.0389746 0.00133763
 0.0437719 0.00151104
 0.0491566 0.00167386
 0.0552005 0.00181943
 0.0619844 0.00194236
 0.0695988 0.00203962
 0.0781455 0.00211035
 0.0877386 0.00215703
 0.0985062 0.00218339
  0.110592 0.00219512
  0.124158 0.00219602
  0.139384 0.00219225
  0.156474 0.00218306
  0.175657 0.00217255
  0.197189 0.00215845
  0.221357 0.00214192
  0.248483 0.00212307
  0.278931 0.00210482
  0.314615 0.00206187
   0.35378 0.00199933
  0.392945 0.00191028
   0.43211 0.00181008
  0.471275 0.00170754
   0.51044 0.00160395
  0.549604 0.00150105
  0.588769 0.00139646
  0.627934 0.00129552
  0.667099 0.00119297
  0.706264 0.00109887
  0.745429 0.00100797
  0.784593 0.00092591
  0.823758 0.000854313
  0.862923 0.000793404
  0.902088 0.000743171
  0.941253 0.000708886
  0.980418 0.000690863
   1.01958 0.000689307
   1.05875 0.000705043
   1.09791 0.00073793
   1.13708 0.000785799
   1.17624 0.000848497
   1.21541 0.000920056
   1.25457  0.0010032
   1.29374 0.00109095
    1.3329 0.00118718
   1.37207 0.00128451
   1.41123 0.00138506
    1.4504  0.0014877
   1.48956 0.00159035
   1.52873 0.00169429
   1.56789 0.00179147
   1.60706 0.00189066
   1.64622 0.00197661
   1.68539 0.00204436
   1.72107  0.0020835
   1.75152  0.0021039
   1.77865 0.00212174
   1.80281 0.00213826
   1.82434 0.00215174
   1.84353 0.00216486
   1.86062 0.00217478
   1.87584  0.0021808
   1.88941 0.00217981
    1.9015 0.00216891
   1.91226  0.0021431
   1.92186 0.00209781
    1.9304 0.00202846
   1.93802 0.00193283
    1.9448   0.001811
   1.95084 0.00166632
   1.95623 0.00150416
   1.96103 0.00133148
    1.9653 0.00115551
   1.96911 0.00098307
    1.9725 0.000820028
   1.97552 0.000670856
   1.97822 0.000538483
   1.98061 0.000424333
   1.98275 0.000328508
   1.98466 0.000250069
   1.98635 0.000187348
   1.98786 0.000138271
   1.98921 0.000100628
   1.99041 7.22816e-05
   1.99148 5.12971e-05
   1.99243    3.6e-05
   1.99333 2.44644e-05
   1.99421 1.5552e-05
    1.9951 9.02039e-06
     1.996 4.59715e-06
   1.99689 1.92497e-06
   1.99777 5.79297e-07
   1.99867 9.13191e-08
   1.99956 1.4829e-09
         2          0
