         0          0
  0.000445 6.79686e-05
  0.001335 0.000609369
  0.002225 0.00168379
  0.003115 0.00326054
  0.004005 0.00527082
  0.004895 0.00760435
  0.005785  0.0101202
  0.006675  0.0126675
0.00756867  0.0151194
0.00852095  0.0175106
0.00958982  0.0198032
 0.0107896  0.0218254
 0.0121362   0.023419
 0.0136477  0.0244729
 0.0153442   0.024944
 0.0172484  0.0248587
 0.0193858  0.0242954
 0.0217849  0.0233587
 0.0244777  0.0221561
 0.0275001  0.0207839
 0.0308926  0.0193217
 0.0347005  0.0178334
 0.0389746  0.0163707
 0.0437719  0.0149741
 0.0491566  0.0136714
 0.0552005   0.012479
 0.0619844  0.0114106
 0.0695988  0.0104708
 0.0781455  0.0096592
 0.0877386  0.0089657
 0.0985062 0.00837184
  0.110592 0.00786646
  0.124158 0.00743751
  0.139384 0.00707975
  0.156474 0.00677052
  0.175657 0.00649976
  0.197189 0.00625825
  0.221357 0.00604694
  0.248483 0.00582609
  0.278931 0.00559088
  0.314615 0.00533878
   0.35378 0.00500679
  0.392945 0.00467372
   0.43211 0.00436197
  0.471275 0.00404722
   0.51044  0.0037337
  0.549604 0.00343482
  0.588769 0.00314414
  0.627934 0.00286694
  0.667099 0.00259608
  0.706264 0.00233344
  0.745429 0.00207456
  0.784593 0.00184244
  0.823758 0.00163228
  0.862923 0.00145425
  0.902088  0.0013118
  0.941253 0.00120949
  0.980418 0.00115321
   1.01958 0.00114757
   1.05875 0.00118781
   1.09791 0.00127513
   1.13708 0.00140601
   1.17624 0.00157169
   1.21541 0.00176763
   1.25457 0.00198821
   1.29374 0.00223022
    1.3329 0.00247951
   1.37207 0.00275224
   1.41123 0.00304778
    1.4504 0.00336636
   1.48956 0.00369691
   1.52873 0.00401926
   1.56789 0.00433636
   1.60706 0.00467013
   1.64622 0.00503137
   1.68539 0.00536582
   1.72107 0.00560783
   1.75152 0.00585608
   1.77865 0.00607946
   1.80281 0.00629355
   1.82434 0.00653644
   1.84353 0.00680079
   1.86062 0.00710707
   1.87584 0.00747135
   1.88941 0.00790175
    1.9015 0.00840383
   1.91226 0.00899293
   1.92186 0.00968395
    1.9304  0.0104931
   1.93802  0.0114288
    1.9448  0.0124939
   1.95084  0.0136833
   1.95623   0.014983
   1.96103  0.0163717
    1.9653  0.0178224
   1.96911  0.0192988
    1.9725  0.0207513
   1.97552  0.0221163
   1.97822  0.0233128
   1.98061  0.0242434
   1.98275     0.0248
   1.98466  0.0248782
   1.98635  0.0244004
   1.98786  0.0233412
   1.98921  0.0217441
   1.99041  0.0197211
   1.99148  0.0174305
   1.99243  0.0150441
   1.99333  0.0125993
   1.99421  0.0100617
    1.9951  0.0075577
     1.996 0.00523691
   1.99689 0.00323885
   1.99777 0.00167238
   1.99867 0.000605212
   1.99956 6.75071e-05
         2          0
