         0    110.287
  0.000445    96.1574
  0.001335    73.4726
  0.002225    56.4511
  0.003115    44.1321
  0.004005     36.124
  0.004895    31.8892
  0.005785    30.5924
  0.006675    31.2524
0.00756867    32.9624
0.00852095    35.0502
0.00958982    37.2336
 0.0107896    39.0804
 0.0121362    40.2713
 0.0136477    40.6421
 0.0153442    40.1736
 0.0172484    38.9528
 0.0193858    37.1282
 0.0217849    34.8668
 0.0244777     32.321
 0.0275001    29.6206
 0.0308926    26.8719
 0.0347005    24.1571
 0.0389746    21.5425
 0.0437719    19.0579
 0.0491566    16.7343
 0.0552005    14.6105
 0.0619844    12.6991
 0.0695988    11.0086
 0.0781455    9.54073
 0.0877386    8.28766
 0.0985062    7.22511
  0.110592    6.32668
  0.124158    5.56168
  0.139384    4.91563
  0.156474    4.35262
  0.175657      3.861
  0.197189    3.42625
  0.221357    3.03774
  0.248483    2.68164
  0.278931    2.32673
  0.314615    2.00009
   0.35378    1.79511
  0.392945    1.64927
   0.43211    1.50055
  0.471275     1.3513
   0.51044    1.21347
  0.549604    1.08446
  0.588769   0.965866
  0.627934   0.850676
  0.667099   0.745765
  0.706264   0.649712
  0.745429   0.561496
  0.784593   0.483052
  0.823758    0.41937
  0.862923   0.366152
  0.902088   0.325083
  0.941253   0.297049
  0.980418   0.282482
   1.01958   0.283037
   1.05875   0.296331
   1.09791   0.324039
   1.13708   0.364665
   1.17624   0.418265
   1.21541   0.481484
   1.25457   0.554993
   1.29374   0.642486
    1.3329   0.740006
   1.37207   0.845056
   1.41123   0.957782
    1.4504    1.07645
   1.48956    1.20558
   1.52873    1.34215
   1.56789    1.48617
   1.60706    1.64145
   1.64622    1.79005
   1.68539    1.99831
   1.72107    2.32418
   1.75152    2.68223
   1.77865    3.03405
   1.80281    3.41824
   1.82434    3.84797
   1.84353    4.33641
   1.86062    4.89698
   1.87584    5.54635
   1.88941     6.3078
    1.9015    7.20348
   1.91226    8.26081
   1.92186    9.51219
    1.9304    10.9783
   1.93802    12.6667
    1.9448    14.5785
   1.95084    16.6997
   1.95623    19.0064
   1.96103    21.5007
    1.9653    24.1313
   1.96911    26.8376
    1.9725    29.5715
   1.97552    32.2527
   1.97822    34.7803
   1.98061    37.0253
   1.98275     38.831
   1.98466    40.0311
   1.98635    40.4787
   1.98786    40.0872
   1.98921    38.8763
   1.99041    37.0121
   1.99148    34.8154
   1.99243    32.7182
   1.99333    31.0012
   1.99421    30.3313
    1.9951    31.6075
     1.996    35.7993
   1.99689    43.7288
   1.99777    55.9233
   1.99867    72.7687
   1.99956    95.2203
         2    109.209
