         0    -43.339
  0.000445   -43.3107
  0.001335   -43.2037
  0.002225   -42.9475
  0.003115   -42.4518
  0.004005   -41.6466
  0.004895   -40.4958
  0.005785   -39.0042
  0.006675   -37.2139
0.00756867   -35.1858
0.00852095   -32.8622
0.00958982   -30.1819
 0.0107896   -27.2235
 0.0121362    -24.106
 0.0136477   -20.9696
 0.0153442   -17.9484
 0.0172484   -15.1488
 0.0193858   -12.6402
 0.0217849   -10.4598
 0.0244777   -8.61313
 0.0275001    -7.0687
 0.0308926   -5.78293
 0.0347005   -4.72896
 0.0389746   -3.86019
 0.0437719    -3.1249
 0.0491566   -2.52681
 0.0552005   -2.08304
 0.0619844   -1.77978
 0.0695988   -1.54423
 0.0781455   -1.34122
 0.0877386   -1.19775
 0.0985062   -1.06841
  0.110592  -0.946848
  0.124158  -0.853182
  0.139384  -0.806027
  0.156474  -0.802919
  0.175657  -0.791837
  0.197189  -0.755009
  0.221357  -0.665884
  0.248483  -0.572261
  0.278931  -0.548014
  0.314615  -0.495971
   0.35378  -0.411669
  0.392945  -0.422392
   0.43211  -0.428979
  0.471275  -0.359149
   0.51044  -0.312123
  0.549604  -0.297939
  0.588769  -0.296031
  0.627934  -0.263022
  0.667099  -0.216631
  0.706264  -0.205898
  0.745429  -0.206813
  0.784593  -0.197696
  0.823758  -0.148508
  0.862923 -0.0944304
  0.902088 -0.0791508
  0.941253 -0.0665507
  0.980418 -0.0300971
   1.01958  0.0107489
   1.05875  0.0641552
   1.09791   0.102592
   1.13708   0.125552
   1.17624   0.132911
   1.21541   0.132603
   1.25457   0.176214
   1.29374   0.234209
    1.3329   0.274298
   1.37207   0.272514
   1.41123   0.260977
    1.4504   0.283681
   1.48956    0.29742
   1.52873   0.311495
   1.56789   0.344489
   1.60706    0.39674
   1.64622   0.473453
   1.68539   0.540226
   1.72107    0.59207
   1.75152   0.630001
   1.77865   0.651872
   1.80281   0.704875
   1.82434   0.770532
   1.84353   0.812957
   1.86062   0.893832
   1.87584   0.986536
   1.88941    1.02788
    1.9015    1.10401
   1.91226    1.22872
   1.92186     1.3423
    1.9304     1.5144
   1.93802    1.80205
    1.9448    2.14551
   1.95084    2.53788
   1.95623     3.0558
   1.96103    3.73377
    1.9653    4.58563
   1.96911    5.63477
    1.9725    6.91573
   1.97552     8.4592
   1.97822    10.2985
   1.98061    12.4717
   1.98275    14.9928
   1.98466    17.8295
   1.98635    20.9017
   1.98786    24.0904
   1.98921    27.2541
   1.99041    30.2504
   1.99148    32.9604
   1.99243     35.306
   1.99333    37.3505
   1.99421    39.1533
    1.9951    40.6544
     1.996    41.8124
   1.99689    42.6229
   1.99777     43.122
   1.99867    43.3794
   1.99956    43.4863
         2    43.5144
