         0    343.232
  0.000445    342.058
  0.001335    340.407
  0.002225    336.136
  0.003115    326.065
  0.004005    308.973
  0.004895    285.944
  0.005785    259.924
  0.006675     234.45
0.00756867    212.216
0.00852095    193.249
0.00958982    178.389
 0.0107896    167.822
 0.0121362    160.273
 0.0136477    153.603
 0.0153442    145.802
 0.0172484    135.757
 0.0193858    123.418
 0.0217849    109.508
 0.0244777    95.0674
 0.0275001    81.0631
 0.0308926    68.1869
 0.0347005    56.8227
 0.0389746    47.0842
 0.0437719    38.8953
 0.0491566    32.1129
 0.0552005    26.5573
 0.0619844    21.9694
 0.0695988    18.1541
 0.0781455    14.9636
 0.0877386    12.3004
 0.0985062    10.0837
  0.110592    8.24999
  0.124158    6.75099
  0.139384    5.54069
  0.156474    4.56727
  0.175657    3.78085
  0.197189    3.14252
  0.221357    2.61814
  0.248483    2.18162
  0.278931    1.77583
  0.314615    1.44075
   0.35378    1.27233
  0.392945    1.16708
   0.43211    1.05875
  0.471275   0.961353
   0.51044   0.871313
  0.549604   0.782617
  0.588769   0.698077
  0.627934   0.623013
  0.667099   0.555108
  0.706264   0.493664
  0.745429    0.43913
  0.784593   0.387745
  0.823758   0.344838
  0.862923   0.309225
  0.902088   0.282483
  0.941253   0.263986
  0.980418   0.254379
   1.01958   0.253064
   1.05875   0.261924
   1.09791   0.279659
   1.13708   0.306664
   1.17624   0.341955
   1.21541   0.383551
   1.25457   0.430786
   1.29374    0.48574
    1.3329   0.545767
   1.37207   0.616211
   1.41123   0.693689
    1.4504   0.777231
   1.48956   0.864957
   1.52873   0.959889
   1.56789    1.05736
   1.60706    1.16607
   1.64622    1.26977
   1.68539    1.44421
   1.72107    1.78283
   1.75152    2.18753
   1.77865    2.62144
   1.80281    3.13765
   1.82434    3.76651
   1.84353    4.54713
   1.86062    5.51873
   1.87584    6.72557
   1.88941    8.21696
    1.9015    10.0498
   1.91226    12.2662
   1.92186    14.9257
    1.9304    18.1001
   1.93802    21.9045
    1.9448    26.4951
   1.95084    32.0702
   1.95623    38.8275
   1.96103    47.0003
    1.9653    56.7681
   1.96911    68.1655
    1.9725    81.0504
   1.97552    95.0137
   1.97822    109.374
   1.98061    123.197
   1.98275    135.466
   1.98466    145.454
   1.98635    153.204
   1.98786    159.835
   1.98921     167.36
   1.99041    177.908
   1.99148    192.731
   1.99243    211.615
   1.99333    233.704
   1.99421    258.943
    1.9951    284.648
     1.996    307.324
   1.99689    324.096
   1.99777     333.94
   1.99867      338.1
   1.99956    339.727
         2    340.901
