         0  -0.973454
  0.000445  -0.966887
  0.001335    -2.8137
  0.002225   -4.23434
  0.003115   -4.96044
  0.004005   -4.86809
  0.004895   -3.98171
  0.005785   -2.44683
  0.006675  -0.479768
0.00756867    1.69708
0.00852095    4.00344
0.00958982    6.37409
 0.0107896    8.60052
 0.0121362    10.4888
 0.0136477    11.9009
 0.0153442    12.7778
 0.0172484    13.1367
 0.0193858    13.0495
 0.0217849    12.6144
 0.0244777    11.9314
 0.0275001    11.0886
 0.0308926    10.1592
 0.0347005    9.20076
 0.0389746    8.25362
 0.0437719    7.34248
 0.0491566    6.48908
 0.0552005    5.71109
 0.0619844    5.01592
 0.0695988    4.40671
 0.0781455    3.88285
 0.0877386    3.43517
 0.0985062    3.05262
  0.110592    2.72431
  0.124158    2.43718
  0.139384    2.18295
  0.156474    1.94835
  0.175657    1.73743
  0.197189     1.5455
  0.221357    1.37675
  0.248483      1.224
  0.278931    1.09142
  0.314615   0.959034
   0.35378   0.845824
  0.392945   0.742631
   0.43211   0.654782
  0.471275   0.574053
   0.51044   0.502666
  0.549604   0.438306
  0.588769   0.382223
  0.627934    0.32869
  0.667099   0.280492
  0.706264   0.237302
  0.745429   0.198094
  0.784593   0.161348
  0.823758   0.127988
  0.862923  0.0965601
  0.902088  0.0668446
  0.941253  0.0388146
  0.980418  0.0124538
   1.01958 -0.0134999
   1.05875 -0.0400456
   1.09791 -0.0677753
   1.13708 -0.0969188
   1.17624  -0.128907
   1.21541  -0.162892
   1.25457   -0.19783
   1.29374  -0.237208
    1.3329   -0.28165
   1.37207  -0.326607
   1.41123   -0.37801
    1.4504   -0.43399
   1.48956  -0.495968
   1.52873  -0.564702
   1.56789  -0.646202
   1.60706  -0.739069
   1.64622  -0.845473
   1.68539  -0.963344
   1.72107   -1.09379
   1.75152   -1.22791
   1.77865    -1.3794
   1.80281   -1.54764
   1.82434   -1.73788
   1.84353    -1.9512
   1.86062   -2.18468
   1.87584   -2.44174
   1.88941   -2.72886
    1.9015   -3.05814
   1.91226   -3.43845
   1.92186   -3.88568
    1.9304   -4.41057
   1.93802   -5.02091
    1.9448   -5.71644
   1.95084   -6.49282
   1.95623   -7.34242
   1.96103   -8.25412
    1.9653   -9.20411
   1.96911   -10.1626
    1.9725   -11.0899
   1.97552   -11.9314
   1.97822   -12.6157
   1.98061   -13.0528
   1.98275   -13.1404
   1.98466     -12.78
   1.98635   -11.9003
   1.98786   -10.4851
   1.98921    -8.5945
   1.99041   -6.36759
   1.99148   -3.99901
   1.99243   -1.69727
   1.99333   0.472654
   1.99421    2.43096
    1.9951    3.95665
     1.996    4.83569
   1.99689    4.92496
   1.99777    4.20185
   1.99867    2.79062
   1.99956   0.958404
         2   0.964635
