         0   0.072753
  0.000445   0.072753
  0.001335   0.654184
  0.002225    1.80806
  0.003115     3.4999
  0.004005    5.65662
  0.004895    8.16359
  0.005785    10.8744
  0.006675    13.6303
0.00756867    16.2946
0.00852095     18.903
0.00958982    21.4103
 0.0107896    23.6193
 0.0121362    25.3424
 0.0136477    26.4418
 0.0153442     26.859
 0.0172484    26.6209
 0.0193858    25.8214
 0.0217849      24.59
 0.0244777    23.0609
 0.0275001    21.3538
 0.0308926    19.5656
 0.0347005    17.7716
 0.0389746    16.0286
 0.0437719    14.3778
 0.0491566     12.846
 0.0552005    11.4469
 0.0619844    10.1881
 0.0695988    9.06878
 0.0781455    8.08648
 0.0877386    7.22977
 0.0985062    6.48016
  0.110592    5.82256
  0.124158    5.24765
  0.139384    4.74598
  0.156474    4.30193
  0.175657    3.91223
  0.197189    3.56815
  0.221357    3.27498
  0.248483    3.01203
  0.278931    2.75255
  0.314615    2.53131
   0.35378    2.25089
  0.392945    1.99818
   0.43211    1.77816
  0.471275    1.57355
   0.51044    1.38711
  0.549604    1.21879
  0.588769    1.06668
  0.627934   0.926857
  0.667099   0.806949
  0.706264   0.698426
  0.745429   0.599449
  0.784593   0.514026
  0.823758   0.441085
  0.862923   0.381495
  0.902088   0.335832
  0.941253   0.305379
  0.980418    0.29023
   1.01958    0.29032
   1.05875   0.305966
   1.09791   0.336491
   1.13708   0.380055
   1.17624    0.43762
   1.21541   0.507838
   1.25457   0.591051
   1.29374   0.687337
    1.3329   0.796408
   1.37207   0.919178
   1.41123    1.05851
    1.4504    1.20952
   1.48956    1.37427
   1.52873    1.55934
   1.56789    1.76611
   1.60706    1.99297
   1.64622    2.25411
   1.68539    2.53567
   1.72107    2.75923
   1.75152    3.01331
   1.77865    3.27817
   1.80281    3.57121
   1.82434    3.90964
   1.84353     4.2996
   1.86062    4.74269
   1.87584    5.24705
   1.88941    5.82118
    1.9015    6.47681
   1.91226    7.22665
   1.92186     8.0864
    1.9304     9.0703
   1.93802    10.1893
    1.9448    11.4512
   1.95084    12.8533
   1.95623    14.3868
   1.96103    16.0358
    1.9653    17.7749
   1.96911    19.5665
    1.9725    21.3552
   1.97552    23.0657
   1.97822    24.5994
   1.98061    25.8342
   1.98275    26.6343
   1.98466    26.8697
   1.98635    26.4471
   1.98786    25.3407
   1.98921    23.6099
   1.99041    21.3938
   1.99148    18.8813
   1.99243    16.2698
   1.99333    13.6045
   1.99421    10.8499
    1.9951    8.14246
     1.996    5.64036
   1.99689    3.48907
   1.99777     1.8022
   1.99867   0.652015
   1.99956  0.0725101
         2  0.0725101
