         0   0.412056
  0.000445          0
  0.001335          0
  0.002225          0
  0.003115          0
  0.004005          0
  0.004895          0
  0.005785          0
  0.006675          0
0.00756867          0
0.00852095          0
0.00958982          0
 0.0107896          0
 0.0121362          0
 0.0136477          0
 0.0153442          0
 0.0172484          0
 0.0193858          0
 0.0217849          0
 0.0244777          0
 0.0275001          0
 0.0308926          0
 0.0347005          0
 0.0389746          0
 0.0437719          0
 0.0491566          0
 0.0552005          0
 0.0619844          0
 0.0695988          0
 0.0781455          0
 0.0877386          0
 0.0985062          0
  0.110592          0
  0.124158          0
  0.139384          0
  0.156474          0
  0.175657          0
  0.197189          0
  0.221357          0
  0.248483          0
  0.278931          0
  0.314615          0
   0.35378          0
  0.392945          0
   0.43211          0
  0.471275          0
   0.51044          0
  0.549604          0
  0.588769          0
  0.627934          0
  0.667099          0
  0.706264          0
  0.745429          0
  0.784593          0
  0.823758          0
  0.862923          0
  0.902088          0
  0.941253          0
  0.980418          0
   1.01958          0
   1.05875          0
   1.09791          0
   1.13708          0
   1.17624          0
   1.21541          0
   1.25457          0
   1.29374          0
    1.3329          0
   1.37207          0
   1.41123          0
    1.4504          0
   1.48956          0
   1.52873          0
   1.56789          0
   1.60706          0
   1.64622          0
   1.68539          0
   1.72107          0
   1.75152          0
   1.77865          0
   1.80281          0
   1.82434          0
   1.84353          0
   1.86062          0
   1.87584          0
   1.88941          0
    1.9015          0
   1.91226          0
   1.92186          0
    1.9304          0
   1.93802          0
    1.9448          0
   1.95084          0
   1.95623          0
   1.96103          0
    1.9653          0
   1.96911          0
    1.9725          0
   1.97552          0
   1.97822          0
   1.98061          0
   1.98275          0
   1.98466          0
   1.98635          0
   1.98786          0
   1.98921          0
   1.99041          0
   1.99148          0
   1.99243          0
   1.99333          0
   1.99421          0
    1.9951          0
     1.996          0
   1.99689          0
   1.99777          0
   1.99867          0
   1.99956          0
         2   0.412411
