         0 1.59816e-05
 0.0002225 1.59816e-05
 0.0006675 0.000174381
 0.0011125 0.000641647
 0.0015575  0.0015129
 0.0020025 0.00281275
 0.0024475 0.00452955
 0.0028925 0.00662785
 0.0033375  0.0090559
 0.0037825  0.0117537
 0.0042275  0.0146593
 0.0046725  0.0177131
 0.0051175  0.0208598
 0.0055625  0.0240504
 0.0060075  0.0272423
 0.0064525  0.0303998
 0.0068975   0.033496
 0.0073476  0.0365503
0.00781612  0.0396311
0.00831203  0.0427546
0.00883694  0.0458855
0.00939255   0.048988
0.00998065  0.0520241
 0.0106031  0.0549532
  0.011262  0.0577324
 0.0119594  0.0603177
 0.0126977  0.0626648
  0.013479  0.0647304
 0.0143061  0.0664735
 0.0151815   0.067857
 0.0161082  0.0688488
  0.017089  0.0694234
 0.0181271  0.0695633
  0.019226  0.0692593
 0.0203891  0.0685118
 0.0216203  0.0673303
 0.0229234  0.0657336
 0.0243028  0.0637484
 0.0257628  0.0614082
 0.0273082  0.0587517
  0.028944  0.0558202
 0.0306754  0.0526587
 0.0325081  0.0493139
 0.0344479  0.0458351
 0.0365012  0.0422734
 0.0386746  0.0386773
  0.040975  0.0350957
   0.04341  0.0315768
 0.0459873  0.0281662
 0.0487154  0.0249092
  0.051603  0.0218468
 0.0546595  0.0190022
 0.0578947  0.0163846
 0.0613191  0.0140018
 0.0649437  0.0118582
 0.0687803 0.00995173
 0.0728413 0.00827039
 0.0771397 0.00679825
 0.0816895 0.00551575
 0.0865054 0.00440786
 0.0916029 0.00345873
 0.0969985 0.00263472
   0.10271 0.00190519
  0.108755 0.00125163
  0.115153 0.00066358
  0.121926 0.000155854
  0.129095 -0.000286798
  0.136683 -0.000666656
  0.144715 -0.000977615
  0.153216 -0.00124116
  0.162214 -0.00149442
  0.171739 -0.00174698
  0.181821 -0.00198678
  0.192492 -0.0022131
  0.203788 -0.00239883
  0.215744 -0.00255783
  0.228399 -0.00270168
  0.241794 -0.00282616
  0.255972 -0.00293995
   0.27098 -0.00307685
  0.286865 -0.00356808
  0.304824 -0.00326877
  0.324407 -0.0024834
  0.343989 -0.00236326
  0.363571 -0.0023572
  0.383154 -0.00238654
  0.402736 -0.00242493
  0.422319 -0.00243974
  0.441901 -0.0024695
  0.461484 -0.00248185
  0.481066 -0.00247792
  0.500648 -0.00247053
  0.520231 -0.00250805
  0.539813 -0.00253483
  0.559396 -0.00256146
  0.578978 -0.0025953
   0.59856 -0.00261692
  0.618143 -0.00261732
  0.637725 -0.00259557
  0.657308 -0.00254371
   0.67689 -0.00246119
  0.696473 -0.00237051
  0.716055 -0.00228749
  0.735637 -0.00220342
   0.75522 -0.00210431
  0.774802 -0.00200457
  0.794385 -0.00191865
  0.813967 -0.00182698
  0.833549 -0.00168973
  0.853132 -0.00152544
  0.872714 -0.00136932
  0.892297 -0.00119314
  0.911879 -0.00100353
  0.931462 -0.000819493
  0.951044 -0.000632539
  0.970626 -0.000438162
  0.990209 -0.000225754
   1.00979 -6.03554e-07
   1.02937 0.000212594
   1.04896 0.000402297
   1.06854 0.000578105
   1.08812 0.000760227
    1.1077 0.000948595
   1.12729 0.00112327
   1.14687 0.00128531
   1.16645 0.00144916
   1.18603 0.00161728
   1.20562 0.00180506
    1.2252  0.0019936
   1.24478 0.00212917
   1.26436 0.00222462
   1.28395  0.0023044
   1.30353 0.00237076
   1.32311  0.0024326
   1.34269 0.00250964
   1.36228  0.0025597
   1.38186 0.00258915
   1.40144 0.00265341
   1.42102 0.00271364
   1.44061 0.00275979
   1.46019 0.00277344
   1.47977 0.00274182
   1.49935 0.00268918
   1.51894 0.00261472
   1.53852 0.00254194
    1.5581 0.00249929
   1.57768 0.00246099
   1.59727 0.00245147
   1.61685  0.0024347
   1.63643 0.00243564
   1.65601 0.00245288
    1.6756 0.00254656
   1.69518 0.00339314
   1.71314 0.00377363
   1.72902 0.00330597
   1.74403 0.00316661
   1.75821 0.00303526
    1.7716 0.00286436
   1.78426 0.00270268
   1.79621 0.00252525
   1.80751 0.00233007
   1.81818 0.00211975
   1.82826 0.00187532
   1.83779    0.00161
   1.84679 0.00133321
   1.85529 0.00101376
   1.86332 0.000644697
   1.87091 0.000230825
   1.87808 -0.000229108
   1.88485 -0.000724278
   1.89125 -0.00126424
   1.89729 -0.00189029
     1.903  -0.002627
    1.9084 -0.00347601
    1.9135 -0.0044427
   1.91831 -0.00556441
   1.92286 -0.00687177
   1.92716 -0.00837578
   1.93122 -0.0100878
   1.93506 -0.0120267
   1.93868 -0.0142105
   1.94211 -0.0166433
   1.94534 -0.0193138
    1.9484 -0.0222035
   1.95129 -0.0252905
   1.95401 -0.0285489
   1.95659 -0.0319498
   1.95903 -0.0354569
   1.96133 -0.0390251
    1.9635 -0.0426063
   1.96555 -0.0461497
   1.96749 -0.0496024
   1.96933 -0.0529112
   1.97106 -0.0560264
   1.97269 -0.0589021
   1.97424 -0.0614955
    1.9757  -0.063767
   1.97708 -0.0656811
   1.97838 -0.0672078
   1.97961  -0.068323
   1.98077 -0.0690099
   1.98187 -0.0692602
   1.98291 -0.0690741
   1.98389 -0.0684607
   1.98482 -0.0674374
   1.98569 -0.0660295
   1.98652 -0.0642686
    1.9873 -0.0621916
   1.98804 -0.0598391
   1.98874 -0.0572541
    1.9894 -0.0544804
   1.99002 -0.0515614
   1.99061 -0.0485394
   1.99116 -0.0454544
   1.99169 -0.0423438
   1.99218 -0.0392424
   1.99265 -0.0361851
    1.9931 -0.0331555
   1.99355 -0.0300853
   1.99399 -0.0269556
   1.99444  -0.023793
   1.99488 -0.0206326
   1.99533 -0.0175167
   1.99577 -0.0144939
   1.99622 -0.0116186
   1.99666 -0.00894988
   1.99711 -0.00654876
   1.99755 -0.00447443
     1.998 -0.00277781
   1.99844 -0.00149369
   1.99889 -0.000633301
   1.99933 -0.000172043
   1.99978 -1.57571e-05
         2 -1.57571e-05
