         0 -0.0202416
 0.0002225 -0.0202416
 0.0006675 -0.0202268
 0.0011125 -0.0201822
 0.0015575 -0.0200924
 0.0020025 -0.0199455
 0.0024475 -0.0197343
 0.0028925 -0.0194562
 0.0033375  -0.019113
 0.0037825 -0.0187102
 0.0042275 -0.0182562
 0.0046725 -0.0177608
 0.0051175 -0.0172348
 0.0055625 -0.0166887
 0.0060075 -0.0161321
 0.0064525 -0.0155734
 0.0068975 -0.0150197
 0.0073476 -0.0144704
0.00781612  -0.013915
0.00831203 -0.0133498
0.00883694 -0.0127823
0.00939255 -0.0122218
0.00998065 -0.0116802
 0.0106031 -0.0111722
  0.011262 -0.0107144
 0.0119594 -0.0103231
 0.0126977 -0.0100111
  0.013479 -0.00978262
 0.0143061 -0.00963099
 0.0151815 -0.00953745
 0.0161082 -0.00947444
  0.017089 -0.00941175
 0.0181271 -0.00932324
  0.019226 -0.00919197
 0.0203891 -0.00901101
 0.0216203 -0.00877804
 0.0229234 -0.00848889
 0.0243028 -0.00813571
 0.0257628 -0.00770648
 0.0273082 -0.00718156
  0.028944 -0.00653824
 0.0306754 -0.00576628
 0.0325081 -0.00487246
 0.0344479 -0.00388859
 0.0365012 -0.00289688
 0.0386746 -0.00199959
  0.040975 -0.00123787
   0.04341 -0.000557525
 0.0459873 0.000103825
 0.0487154 0.000685681
  0.051603 0.00110068
 0.0546595 0.00142272
 0.0578947 0.00180805
 0.0613191 0.00218939
 0.0649437 0.00227188
 0.0687803 0.00192125
 0.0728413  0.0011402
 0.0771397 -3.18157e-05
 0.0816895 -0.00131176
 0.0865054 -0.00239438
 0.0916029 -0.0031051
 0.0969985 -0.0032759
   0.10271 -0.00300524
  0.108755 -0.00294476
  0.115153 -0.00342344
  0.121926 -0.00362972
  0.129095 -0.00320618
  0.136683  -0.002657
  0.144715 -0.00227457
  0.153216 -0.00213561
  0.162214 -0.00163891
  0.171739 -0.000714716
  0.181821 -0.000182879
  0.192492 -0.00118409
  0.203788 -0.00368504
  0.215744 -0.00641174
  0.228399 -0.0073456
  0.241794 -0.00544262
  0.255972 -0.00351595
   0.27098 -0.00293095
  0.286865 -0.00428791
  0.304824 -0.00449458
  0.324407 -0.00225839
  0.343989 -0.00118921
  0.363571 -0.00126803
  0.383154 -0.00231973
  0.402736 -0.00309083
  0.422319 -0.00367462
  0.441901 -0.0044625
  0.461484 -0.0039286
  0.481066 -0.00360134
  0.500648 -0.00505699
  0.520231 -0.00524162
  0.539813 -0.00242717
  0.559396 0.000399175
  0.578978 0.00145756
   0.59856 0.00206262
  0.618143 0.00280312
  0.637725 0.00350082
  0.657308 0.00369178
   0.67689 0.00325335
  0.696473 0.00305131
  0.716055 0.00344269
  0.735637 0.00355311
   0.75522 0.00279683
  0.774802  0.0027018
  0.794385 0.00417014
  0.813967 0.00515705
  0.833549   0.004489
  0.853132 0.00428758
  0.872714 0.00489941
  0.892297 0.00493738
  0.911879 0.00470593
  0.931462 0.00457464
  0.951044 0.00414075
  0.970626 0.00319288
  0.990209 0.00261207
   1.00979 0.00341974
   1.02937 0.00431054
   1.04896 0.00504905
   1.06854  0.0060763
   1.08812 0.00667079
    1.1077 0.00698445
   1.12729 0.00637119
   1.14687 0.00479271
   1.16645 0.00367797
   1.18603 0.00421388
   1.20562 0.00514083
    1.2252  0.0043222
   1.24478 0.00267668
   1.26436 0.00107109
   1.28395 -0.000839062
   1.30353 -0.00302577
   1.32311 -0.00528239
   1.34269 -0.00648024
   1.36228 -0.00591637
   1.38186 -0.00460545
   1.40144 -0.00384346
   1.42102 -0.00271342
   1.44061 -0.00102713
   1.46019 -0.000236089
   1.47977 -0.000863801
   1.49935 -0.00235517
   1.51894 -0.00290933
   1.53852 -0.00491779
    1.5581 -0.00664036
   1.57768 -0.00427297
   1.59727 -0.00081943
   1.61685 0.00212306
   1.63643 0.00418691
   1.65601 0.00439961
    1.6756 0.00224575
   1.69518 0.000291955
   1.71314 0.000487046
   1.72902 0.00153252
   1.74403 0.00260444
   1.75821 0.00256036
    1.7716 0.00148979
   1.78426 0.000820263
   1.79621 0.000795913
   1.80751 0.00146209
   1.81818 0.00189918
   1.82826 0.00168849
   1.83779 0.00141931
   1.84679 0.000501864
   1.85529 -0.000879251
   1.86332 -0.00155564
   1.87091 -0.00124926
   1.87808 -0.000320613
   1.88485 0.000674047
   1.89125 0.00162724
   1.89729 0.00275761
     1.903 0.00367659
    1.9084 0.00420895
    1.9135 0.00480846
   1.91831 0.00550802
   1.92286 0.00586846
   1.92716 0.00588705
   1.93122 0.00582118
   1.93506 0.00567463
   1.93868 0.00538274
   1.94211 0.00498161
   1.94534 0.00456907
    1.9484 0.00412307
   1.95129 0.00351802
   1.95401 0.00274345
   1.95659 0.00183631
   1.95903 0.00082107
   1.96133 -0.000208281
    1.9635 -0.00115773
   1.96555 -0.00202853
   1.96749 -0.00286379
   1.96933 -0.00368334
   1.97106 -0.00447735
   1.97269 -0.00521498
   1.97424 -0.00586941
    1.9757 -0.00645089
   1.97708 -0.00700858
   1.97838 -0.00759684
   1.97961 -0.00825176
   1.98077 -0.00899806
   1.98187 -0.0098591
   1.98291 -0.0108527
   1.98389 -0.0119831
   1.98482 -0.0132405
   1.98569 -0.0146052
   1.98652 -0.0160524
    1.9873 -0.0175543
   1.98804 -0.0190817
   1.98874 -0.0206069
    1.9894 -0.0221058
   1.99002 -0.0235603
   1.99061 -0.0249584
   1.99116 -0.0262933
   1.99169  -0.027563
   1.99218 -0.0287681
   1.99265 -0.0299104
    1.9931 -0.0310109
   1.99355 -0.0321003
   1.99399 -0.0331876
   1.99444 -0.0342659
   1.99488  -0.035324
   1.99533 -0.0363466
   1.99577 -0.0373145
   1.99622 -0.0382061
   1.99666 -0.0389996
   1.99711 -0.0396762
   1.99755  -0.040223
     1.998 -0.0406351
   1.99844 -0.0409179
   1.99889  -0.041087
   1.99933 -0.0411673
   1.99978 -0.0411919
         2 -0.0411919
