         0    2945.68
 0.0002225    2945.68
 0.0006675    2915.58
 0.0011125    2887.58
 0.0015575    2856.33
 0.0020025    2817.38
 0.0024475    2767.29
 0.0028925     2703.8
 0.0033375       2626
 0.0037825    2534.29
 0.0042275    2430.26
 0.0046725    2316.36
 0.0051175    2195.49
 0.0055625    2070.68
 0.0060075    1944.78
 0.0064525    1820.29
 0.0068975    1699.24
 0.0073476    1581.81
0.00781612     1466.1
0.00831203    1351.79
0.00883694    1240.36
0.00939255    1133.13
0.00998065     1031.2
 0.0106031     935.41
  0.011262    846.334
 0.0119594    764.287
 0.0126977    689.351
  0.013479    621.409
 0.0143061    560.186
 0.0151815    505.289
 0.0161082    456.249
  0.017089    412.555
 0.0181271    373.684
  0.019226     339.12
 0.0203891    308.375
 0.0216203    280.998
 0.0229234    256.579
 0.0243028    234.752
 0.0257628    215.194
 0.0273082    197.628
  0.028944     181.81
 0.0306754    167.531
 0.0325081     154.61
 0.0344479     142.89
 0.0365012    132.239
 0.0386746    122.536
  0.040975    113.677
   0.04341    105.583
 0.0459873    98.1797
 0.0487154    91.3869
  0.051603    85.1482
 0.0546595    79.4225
 0.0578947    74.1493
 0.0613191    69.2729
 0.0649437    64.7629
 0.0687803    60.5924
 0.0728413    56.7194
 0.0771397    53.1132
 0.0816895    49.7656
 0.0865054    46.6596
 0.0916029    43.7734
 0.0969985    41.0845
   0.10271    38.5733
  0.108755    36.2248
  0.115153    34.0267
  0.121926    31.9788
  0.129095    30.0694
  0.136683    28.2779
  0.144715    26.6047
  0.153216    25.0409
  0.162214    23.5784
  0.171739    22.2025
  0.181821    20.9001
  0.192492    19.6662
  0.203788    18.5039
  0.215744    17.4126
  0.228399    16.3779
  0.241794    15.3856
  0.255972    14.4506
   0.27098    13.5679
  0.286865    12.5606
  0.304824    11.5044
  0.324407    10.7077
  0.343989    10.1185
  0.363571    9.55068
  0.383154    9.02133
  0.402736     8.5269
  0.422319    8.05611
  0.441901    7.61959
  0.461484    7.20802
  0.481066    6.81209
  0.500648    6.43368
  0.520231    6.07095
  0.539813     5.7338
  0.559396    5.41482
  0.578978    5.11011
   0.59856    4.81696
  0.618143     4.5375
  0.637725    4.27358
  0.657308    4.02491
   0.67689    3.79265
  0.696473    3.57395
  0.716055    3.36499
  0.735637    3.16801
   0.75522      2.981
  0.774802    2.80186
  0.794385     2.6316
  0.813967    2.47086
  0.833549    2.32507
  0.853132    2.19482
  0.872714    2.07689
  0.892297    1.97451
  0.911879    1.88956
  0.931462    1.81984
  0.951044    1.76534
  0.970626    1.72731
  0.990209    1.70452
   1.00979    1.69801
   1.02937    1.70924
   1.04896     1.7383
   1.06854    1.78297
   1.08812    1.84396
    1.1077    1.92267
   1.12729    2.01789
   1.14687     2.1259
   1.16645    2.24577
   1.18603     2.3803
   1.20562    2.52997
    1.2252    2.69317
   1.24478    2.86843
   1.26436    3.05905
   1.28395    3.26413
   1.30353     3.4845
   1.32311    3.71728
   1.34269    3.96489
   1.36228    4.22182
   1.38186    4.48733
   1.40144    4.77423
   1.42102    5.07828
   1.44061    5.39119
   1.46019    5.71934
   1.47977    6.06399
   1.49935    6.42403
   1.51894    6.80186
   1.53852    7.20096
    1.5581    7.62004
   1.57768    8.06518
   1.59727    8.54772
   1.61685    9.06199
   1.63643    9.62203
   1.65601    10.2145
    1.6756    10.8227
   1.69518    11.6422
   1.71314    12.7395
   1.72902    13.7931
   1.74403    14.7251
   1.75821    15.7016
    1.7716    16.7245
   1.78426     17.799
   1.79621    18.9283
   1.80751    20.1065
   1.81818    21.3469
   1.82826    22.6564
   1.83779    24.0482
   1.84679    25.5342
   1.85529     27.115
   1.86332    28.7911
   1.87091    30.5662
   1.87808     32.462
   1.88485     34.481
   1.89125    36.6287
   1.89729    38.9247
     1.903    41.3875
    1.9084    44.0294
    1.9135    46.8701
   1.91831    49.9256
   1.92286    53.2118
   1.92716    56.7438
   1.93122    60.5417
   1.93506    64.6382
   1.93868    69.0596
   1.94211    73.8362
   1.94534    79.0137
    1.9484    84.6451
   1.95129     90.766
   1.95401    97.4305
   1.95659    104.701
   1.95903    112.639
   1.96133    121.324
    1.9635    130.861
   1.96555     141.35
   1.96749    152.892
   1.96933    165.618
   1.97106    179.682
   1.97269    195.269
   1.97424    212.587
    1.9757    231.882
   1.97708    253.439
   1.97838    277.573
   1.97961    304.639
   1.98077    335.036
   1.98187    369.209
   1.98291    407.639
   1.98389    450.835
   1.98482    499.313
   1.98569    553.572
   1.98652    614.069
    1.9873    681.184
   1.98804     755.18
   1.98874    836.162
    1.9894    924.039
   1.99002    1018.49
   1.99061    1118.94
   1.99116    1224.54
   1.99169    1334.22
   1.99218    1446.66
   1.99265    1560.41
    1.9931    1675.79
   1.99355    1794.66
   1.99399    1916.83
   1.99444    2040.33
   1.99488    2162.71
   1.99533    2281.19
   1.99577     2392.8
   1.99622    2494.73
   1.99666    2584.59
   1.99711    2660.85
   1.99755     2723.1
     1.998    2772.26
   1.99844    2810.55
   1.99889    2841.32
   1.99933    2868.95
   1.99978    2898.68
         2    2898.68
