         0    48.5655
 0.0002225    48.5655
 0.0006675    48.5266
 0.0011125    48.4482
 0.0015575    48.3036
 0.0020025     48.067
 0.0024475    47.7155
 0.0028925    47.2309
 0.0033375    46.6016
 0.0037825    45.8228
 0.0042275    44.8972
 0.0046725    43.8341
 0.0051175    42.6482
 0.0055625    41.3581
 0.0060075    39.9849
 0.0064525    38.5502
 0.0068975    37.0757
 0.0073476     35.564
0.00781612    33.9889
0.00831203    32.3397
0.00883694    30.6332
0.00939255    28.8879
0.00998065    27.1238
 0.0106031    25.3607
  0.011262     23.618
 0.0119594    21.9136
 0.0126977    20.2631
  0.013479    18.6796
 0.0143061    17.1734
 0.0151815    15.7517
 0.0161082     14.419
  0.017089    13.1774
 0.0181271    12.0267
  0.019226    10.9652
 0.0203891    9.98975
 0.0216203    9.09623
 0.0229234    8.27996
 0.0243028    7.53595
 0.0257628    6.85907
 0.0273082    6.24432
  0.028944    5.68689
 0.0306754    5.18222
 0.0325081      4.726
 0.0344479    4.31415
 0.0365012    3.94278
 0.0386746    3.60821
  0.040975     3.3071
   0.04341    3.03653
 0.0459873    2.79384
 0.0487154    2.57648
  0.051603    2.38225
 0.0546595    2.20911
 0.0578947    2.05479
 0.0613191    1.91668
 0.0649437    1.79267
 0.0687803    1.68119
 0.0728413    1.58058
 0.0771397    1.48945
 0.0816895    1.40726
 0.0865054    1.33325
 0.0916029    1.26596
 0.0969985    1.20386
   0.10271    1.14585
  0.108755    1.09145
  0.115153    1.04077
  0.121926   0.993851
  0.129095   0.949843
  0.136683   0.908246
  0.144715   0.869268
  0.153216   0.833126
  0.162214   0.800026
  0.171739   0.768949
  0.181821    0.73916
  0.192492   0.710429
  0.203788   0.683681
  0.215744   0.659385
  0.228399   0.636627
  0.241794   0.615187
  0.255972   0.596866
   0.27098     0.5784
  0.286865     0.5616
  0.304824   0.547912
  0.324407   0.526329
  0.343989   0.501396
  0.363571   0.480756
  0.383154   0.462559
  0.402736    0.44646
  0.422319   0.430445
  0.441901   0.415828
  0.461484   0.401807
  0.481066   0.387675
  0.500648   0.372718
  0.520231   0.356803
  0.539813      0.343
  0.559396   0.330583
  0.578978    0.31817
   0.59856   0.305398
  0.618143   0.292435
  0.637725   0.279617
  0.657308   0.267005
   0.67689   0.255872
  0.696473   0.246589
  0.716055   0.237191
  0.735637   0.226698
   0.75522   0.215606
  0.774802   0.203561
  0.794385   0.189548
  0.813967   0.175362
  0.833549   0.160319
  0.853132   0.143741
  0.872714   0.127137
  0.892297   0.110332
  0.911879  0.0922296
  0.931462  0.0719372
  0.951044  0.0506769
  0.970626  0.0303997
  0.990209  0.0114044
   1.00979 -0.00833813
   1.02937 -0.0289695
   1.04896 -0.0480858
   1.06854 -0.0661016
   1.08812  -0.084417
    1.1077  -0.102294
   1.12729  -0.119246
   1.14687  -0.135714
   1.16645  -0.151983
   1.18603  -0.168467
   1.20562  -0.184133
    1.2252  -0.197864
   1.24478  -0.210482
   1.26436  -0.222882
   1.28395  -0.235363
   1.30353  -0.248512
   1.32311  -0.262855
   1.34269  -0.276386
   1.36228  -0.288003
   1.38186  -0.299717
   1.40144   -0.31172
   1.42102  -0.323487
   1.44061  -0.335236
   1.46019  -0.347092
   1.47977  -0.360647
   1.49935  -0.374461
   1.51894  -0.387354
   1.53852  -0.401764
    1.5581  -0.416325
   1.57768  -0.431535
   1.59727  -0.450321
   1.61685  -0.469539
   1.63643  -0.490749
   1.65601  -0.512472
    1.6756   -0.53349
   1.69518   -0.55433
   1.71314  -0.572154
   1.72902  -0.592741
   1.74403  -0.614302
   1.75821  -0.635463
    1.7716  -0.658533
   1.78426  -0.682941
   1.79621  -0.708549
   1.80751  -0.734952
   1.81818  -0.762766
   1.82826  -0.792167
   1.83779  -0.824216
   1.84679  -0.859252
   1.85529  -0.896563
   1.86332  -0.935348
   1.87091  -0.975729
   1.87808   -1.01791
   1.88485   -1.06215
   1.89125   -1.10928
   1.89729   -1.16018
     1.903   -1.21513
    1.9084    -1.2748
    1.9135   -1.34036
   1.91831   -1.41267
   1.92286   -1.49262
   1.92716   -1.58128
   1.93122   -1.67989
   1.93506   -1.78973
   1.93868   -1.91198
   1.94211   -2.04828
   1.94534   -2.20081
    1.9484   -2.37173
   1.95129   -2.56309
   1.95401    -2.7772
   1.95659    -3.0167
   1.95903   -3.28428
   1.96133   -3.58281
    1.9635   -3.91539
   1.96555   -4.28523
   1.96749   -4.69563
   1.96933   -5.15018
   1.97106   -5.65288
   1.97269   -6.20813
   1.97424   -6.82064
    1.9757   -7.49531
   1.97708   -8.23713
   1.97838   -9.05106
   1.97961   -9.94196
   1.98077   -10.9144
   1.98187   -11.9723
   1.98291   -13.1187
   1.98389   -14.3553
   1.98482   -15.6821
   1.98569   -17.0969
   1.98652    -18.595
    1.9873   -20.1691
   1.98804   -21.8089
   1.98874   -23.5012
    1.9894   -25.2304
   1.99002   -26.9788
   1.99061   -28.7272
   1.99116   -30.4558
   1.99169   -32.1452
   1.99218   -33.7769
   1.99265   -35.3346
    1.9931   -36.8288
   1.99355   -38.2858
   1.99399   -39.7027
   1.99444   -41.0585
   1.99488   -42.3318
   1.99533   -43.5019
   1.99577   -44.5505
   1.99622   -45.4634
   1.99666   -46.2314
   1.99711    -46.852
   1.99755   -47.3298
     1.998   -47.6766
   1.99844     -47.91
   1.99889   -48.0528
   1.99933   -48.1303
   1.99978   -48.1689
         2   -48.1689
