         0 -1.40059e-05
 0.0002225 -1.40059e-05
 0.0006675 -0.000179954
 0.0011125 -0.000657854
 0.0015575 -0.00152217
 0.0020025 -0.00281646
 0.0024475 -0.00453122
 0.0028925 -0.00662821
 0.0033375 -0.00905501
 0.0037825 -0.0117518
 0.0042275 -0.0146567
 0.0046725 -0.0177099
 0.0051175 -0.0208562
 0.0055625 -0.0240462
 0.0060075 -0.0272362
 0.0064525  -0.030391
 0.0068975 -0.0334898
 0.0073476 -0.0365509
0.00781612 -0.0396312
0.00831203  -0.042751
0.00883694 -0.0458802
0.00939255 -0.0489821
0.00998065 -0.0520175
 0.0106031 -0.0549457
  0.011262 -0.0577238
 0.0119594  -0.060308
 0.0126977  -0.062654
  0.013479 -0.0647184
 0.0143061 -0.0664603
 0.0151815 -0.0678425
 0.0161082 -0.0688332
  0.017089 -0.0694067
 0.0181271 -0.0695456
  0.019226 -0.0692409
 0.0203891 -0.0684928
 0.0216203  -0.067311
 0.0229234 -0.0657141
 0.0243028 -0.0637289
 0.0257628 -0.0613889
 0.0273082 -0.0587326
  0.028944 -0.0558012
 0.0306754 -0.0526403
 0.0325081 -0.0492965
 0.0344479 -0.0458187
 0.0365012 -0.0422577
 0.0386746 -0.0386627
  0.040975 -0.0350823
   0.04341 -0.0315644
 0.0459873 -0.0281554
 0.0487154 -0.0249004
  0.051603 -0.0218388
 0.0546595 -0.0189946
 0.0578947 -0.0163781
 0.0613191 -0.0139963
 0.0649437 -0.0118539
 0.0687803  -0.009948
 0.0728413 -0.00826738
 0.0771397 -0.0067956
 0.0816895  -0.005514
 0.0865054 -0.00440712
 0.0916029 -0.00345779
 0.0969985 -0.00263402
   0.10271 -0.00190532
  0.108755 -0.00125107
  0.115153 -0.00066544
  0.121926 -0.000156084
  0.129095 0.000285938
  0.136683 0.000665306
  0.144715 0.000975874
  0.153216 0.00124031
  0.162214 0.00149284
  0.171739 0.00174612
  0.181821 0.00198394
  0.192492 0.00221369
  0.203788 0.00239385
  0.215744 0.00256131
  0.228399 0.00269355
  0.241794 0.00283321
  0.255972 0.00292725
   0.27098 0.00308823
  0.286865 0.00355904
  0.304824 0.00326507
  0.324407 0.00248994
  0.343989 0.00235522
  0.363571  0.0023618
  0.383154 0.00238193
  0.402736 0.00242688
  0.422319 0.00243739
  0.441901 0.00246963
  0.461484 0.00248107
  0.481066 0.00247676
  0.500648 0.00247094
  0.520231 0.00250635
  0.539813 0.00253482
  0.559396 0.00256053
  0.578978 0.00259468
   0.59856 0.00261638
  0.618143 0.00261663
  0.637725   0.002595
  0.657308 0.00254294
   0.67689 0.00246066
  0.696473 0.00237002
  0.716055 0.00228698
  0.735637 0.00220286
   0.75522 0.00210386
  0.774802 0.00200421
  0.794385 0.00191822
  0.813967 0.00182655
  0.833549 0.00168909
  0.853132 0.00152557
  0.872714 0.00136866
  0.892297 0.00119302
  0.911879 0.00100332
  0.931462 0.000819283
  0.951044 0.000632457
  0.970626 0.000437917
  0.990209 0.000225647
   1.00979 7.09267e-07
   1.02937 -0.000212588
   1.04896 -0.000402173
   1.06854 -0.000577966
   1.08812 -0.000760105
    1.1077 -0.000948303
   1.12729 -0.00112296
   1.14687 -0.00128506
   1.16645 -0.00144871
   1.18603 -0.00161695
   1.20562  -0.001805
    1.2252 -0.00199266
   1.24478 -0.00212887
   1.26436 -0.00222397
   1.28395 -0.00230407
   1.30353 -0.00236994
   1.32311 -0.00243241
   1.34269 -0.00250886
   1.36228 -0.00255875
   1.38186 -0.00258923
   1.40144 -0.00265225
   1.42102 -0.00271309
   1.44061 -0.00275922
   1.46019 -0.0027723
   1.47977 -0.00274186
   1.49935 -0.00268762
   1.51894 -0.00261499
   1.53852 -0.00254004
    1.5581 -0.00250023
   1.57768 -0.00245792
   1.59727 -0.00245422
   1.61685 -0.00242921
   1.63643 -0.00244111
   1.65601 -0.00244341
    1.6756 -0.00255501
   1.69518 -0.00338777
   1.71314 -0.00376566
   1.72902 -0.00331615
   1.74403 -0.00315536
   1.75821 -0.00304029
    1.7716 -0.00285808
   1.78426 -0.0027049
   1.79621 -0.00252071
   1.80751 -0.00233072
   1.81818 -0.00211664
   1.82826  -0.001875
   1.83779 -0.00160827
   1.84679 -0.00133181
   1.85529 -0.0010126
   1.86332 -0.000643792
   1.87091 -0.000229703
   1.87808  0.0002294
   1.88485 0.000724258
   1.89125 0.00126482
   1.89729 0.00189029
     1.903 0.00262653
    1.9084 0.00347418
    1.9135 0.00444159
   1.91831 0.00556292
   1.92286  0.0068692
   1.92716 0.00837225
   1.93122  0.0100837
   1.93506  0.0120223
   1.93868  0.0142055
   1.94211  0.0166371
   1.94534  0.0193063
    1.9484  0.0221948
   1.95129  0.0252806
   1.95401  0.0285383
   1.95659  0.0319382
   1.95903  0.0354438
   1.96133  0.0390108
    1.9635   0.042591
   1.96555  0.0461333
   1.96749  0.0495849
   1.96933   0.052893
   1.97106  0.0560078
   1.97269  0.0588832
   1.97424  0.0614764
    1.9757  0.0637478
   1.97708   0.065662
   1.97838  0.0671889
   1.97961  0.0683044
   1.98077   0.068992
   1.98187   0.069243
   1.98291  0.0690578
   1.98389  0.0684454
   1.98482  0.0674233
   1.98569  0.0660165
   1.98652  0.0642568
    1.9873   0.062181
   1.98804  0.0598297
   1.98874  0.0572458
    1.9894  0.0544731
   1.99002   0.051555
   1.99061  0.0485337
   1.99116  0.0454493
   1.99169  0.0423402
   1.99218  0.0392426
   1.99265  0.0361858
    1.9931  0.0331494
   1.99355  0.0300767
   1.99399  0.0269497
   1.99444  0.0237889
   1.99488  0.0206291
   1.99533  0.0175136
   1.99577  0.0144913
   1.99622  0.0116168
   1.99666 0.00894902
   1.99711 0.00654914
   1.99755  0.0044761
     1.998 0.00278149
   1.99844 0.00150286
   1.99889 0.000649293
   1.99933 0.000177513
   1.99978 1.37796e-05
         2 1.37796e-05
