         0  0.0169262
 0.0002225  0.0169262
 0.0006675  0.0169262
 0.0011125   0.016926
 0.0015575  0.0169256
 0.0020025  0.0169247
 0.0024475  0.0169232
 0.0028925  0.0169208
 0.0033375  0.0169175
 0.0037825  0.0169131
 0.0042275  0.0169074
 0.0046725  0.0169005
 0.0051175  0.0168922
 0.0055625  0.0168825
 0.0060075  0.0168715
 0.0064525  0.0168591
 0.0068975  0.0168453
 0.0073476  0.0168301
0.00781612  0.0168128
0.00831203  0.0167929
0.00883694  0.0167703
0.00939255  0.0167447
0.00998065  0.0167158
 0.0106031  0.0166834
  0.011262  0.0166472
 0.0119594   0.016607
 0.0126977  0.0165627
  0.013479  0.0165141
 0.0143061   0.016461
 0.0151815  0.0164034
 0.0161082  0.0163414
  0.017089  0.0162748
 0.0181271  0.0162039
  0.019226  0.0161288
 0.0203891  0.0160497
 0.0216203  0.0159669
 0.0229234  0.0158806
 0.0243028  0.0157915
 0.0257628  0.0156999
 0.0273082  0.0156065
  0.028944   0.015512
 0.0306754   0.015417
 0.0325081  0.0153222
 0.0344479  0.0152283
 0.0365012  0.0151358
 0.0386746  0.0150453
  0.040975   0.014957
   0.04341  0.0148715
 0.0459873  0.0147898
 0.0487154  0.0147129
  0.051603  0.0146421
 0.0546595  0.0145777
 0.0578947  0.0145196
 0.0613191  0.0144682
 0.0649437  0.0144234
 0.0687803  0.0143839
 0.0728413  0.0143475
 0.0771397  0.0143148
 0.0816895  0.0142855
 0.0865054  0.0142603
 0.0916029  0.0142391
 0.0969985  0.0142199
   0.10271  0.0142038
  0.108755  0.0141929
  0.115153  0.0141847
  0.121926  0.0141745
  0.129095  0.0141656
  0.136683  0.0141655
  0.144715  0.0141719
  0.153216  0.0141804
  0.162214  0.0141853
  0.171739  0.0141918
  0.181821  0.0142104
  0.192492   0.014238
  0.203788  0.0142715
  0.215744  0.0142972
  0.228399  0.0143265
  0.241794  0.0143588
  0.255972  0.0143998
   0.27098  0.0144477
  0.286865  0.0144997
  0.304824  0.0145731
  0.324407  0.0146314
  0.343989    0.01471
  0.363571  0.0147682
  0.383154   0.014794
  0.402736  0.0148301
  0.422319   0.014881
  0.441901  0.0149408
  0.461484  0.0149939
  0.481066  0.0150335
  0.500648  0.0150587
  0.520231  0.0151014
  0.539813  0.0151591
  0.559396  0.0152078
  0.578978  0.0152721
   0.59856  0.0153283
  0.618143  0.0153753
  0.637725  0.0154285
  0.657308  0.0154672
   0.67689  0.0155182
  0.696473  0.0155687
  0.716055  0.0156137
  0.735637  0.0156612
   0.75522  0.0156955
  0.774802  0.0157235
  0.794385  0.0157408
  0.813967  0.0157579
  0.833549  0.0157753
  0.853132   0.015794
  0.872714  0.0158136
  0.892297  0.0158189
  0.911879  0.0158245
  0.931462  0.0158365
  0.951044  0.0158498
  0.970626  0.0158689
  0.990209  0.0158896
   1.00979  0.0159012
   1.02937  0.0159042
   1.04896  0.0158966
   1.06854  0.0158764
   1.08812  0.0158515
    1.1077  0.0158325
   1.12729  0.0158159
   1.14687  0.0157991
   1.16645  0.0157759
   1.18603  0.0157505
   1.20562  0.0157329
    1.2252  0.0157112
   1.24478  0.0156713
   1.26436  0.0156157
   1.28395  0.0155659
   1.30353  0.0155194
   1.32311  0.0154881
   1.34269   0.015453
   1.36228  0.0153978
   1.38186  0.0153473
   1.40144   0.015299
   1.42102  0.0152502
   1.44061  0.0152047
   1.46019  0.0151664
   1.47977  0.0151353
   1.49935  0.0150844
   1.51894   0.015014
   1.53852  0.0149502
    1.5581  0.0148819
   1.57768  0.0148295
   1.59727  0.0147917
   1.61685  0.0147638
   1.63643  0.0147342
   1.65601  0.0147073
    1.6756  0.0146755
   1.69518  0.0146053
   1.71314  0.0145097
   1.72902  0.0144498
   1.74403  0.0143937
   1.75821  0.0143315
    1.7716  0.0142746
   1.78426  0.0142433
   1.79621  0.0142224
   1.80751  0.0141966
   1.81818  0.0141746
   1.82826   0.014164
   1.83779  0.0141593
   1.84679  0.0141534
   1.85529  0.0141465
   1.86332  0.0141388
   1.87091  0.0141356
   1.87808  0.0141333
   1.88485  0.0141331
   1.89125  0.0141333
   1.89729  0.0141366
     1.903  0.0141479
    1.9084  0.0141647
    1.9135  0.0141852
   1.91831  0.0142075
   1.92286  0.0142315
   1.92716  0.0142587
   1.93122   0.014291
   1.93506  0.0143288
   1.93868  0.0143723
   1.94211  0.0144222
   1.94534  0.0144792
    1.9484  0.0145426
   1.95129  0.0146115
   1.95401  0.0146851
   1.95659  0.0147635
   1.95903  0.0148464
   1.96133  0.0149333
    1.9635  0.0150239
   1.96555  0.0151176
   1.96749  0.0152137
   1.96933  0.0153117
   1.97106  0.0154107
   1.97269    0.01551
   1.97424  0.0156086
    1.9757  0.0157057
   1.97708  0.0158005
   1.97838  0.0158924
   1.97961  0.0159808
   1.98077  0.0160653
   1.98187  0.0161456
   1.98291  0.0162214
   1.98389  0.0162926
   1.98482  0.0163589
   1.98569  0.0164204
   1.98652  0.0164771
    1.9873   0.016529
   1.98804  0.0165763
   1.98874  0.0166192
    1.9894  0.0166578
   1.99002  0.0166925
   1.99061  0.0167234
   1.99116  0.0167509
   1.99169  0.0167751
   1.99218  0.0167964
   1.99265   0.016815
    1.9931  0.0168314
   1.99355  0.0168463
   1.99399  0.0168596
   1.99444  0.0168715
   1.99488   0.016882
   1.99533  0.0168909
   1.99577  0.0168984
   1.99622  0.0169045
   1.99666  0.0169093
   1.99711  0.0169129
   1.99755  0.0169155
     1.998  0.0169171
   1.99844  0.0169181
   1.99889  0.0169186
   1.99933  0.0169187
   1.99978  0.0169187
         2  0.0169187
