         0 -0.000240239
 0.0002225 -0.000240239
 0.0006675 -0.000240251
 0.0011125 -0.000240399
 0.0015575 -0.000240836
 0.0020025 -0.000241753
 0.0024475 -0.000243343
 0.0028925 -0.000245786
 0.0033375 -0.000249242
 0.0037825 -0.000253845
 0.0042275 -0.000259701
 0.0046725 -0.00026689
 0.0051175 -0.000275463
 0.0055625 -0.000285452
 0.0060075 -0.000296864
 0.0064525 -0.000309692
 0.0068975 -0.000323912
 0.0073476 -0.000339677
0.00781612 -0.000357517
0.00831203 -0.000377941
0.00883694 -0.000401203
0.00939255 -0.000427563
0.00998065 -0.000457274
 0.0106031 -0.000490586
  0.011262 -0.000527733
 0.0119594 -0.00056893
 0.0126977 -0.000614363
  0.013479 -0.000664185
 0.0143061 -0.000718503
 0.0151815 -0.000777372
 0.0161082 -0.000840789
  0.017089 -0.000908688
 0.0181271 -0.00098093
  0.019226 -0.00105731
 0.0203891 -0.00113754
 0.0216203 -0.00122127
 0.0229234 -0.00130807
 0.0243028 -0.00139748
 0.0257628 -0.00148894
 0.0273082 -0.00158187
  0.028944 -0.00167565
 0.0306754 -0.00176962
 0.0325081 -0.0018631
 0.0344479 -0.0019554
 0.0365012 -0.00204586
 0.0386746 -0.0021338
  0.040975 -0.0022186
   0.04341 -0.00229969
 0.0459873 -0.00237656
 0.0487154 -0.00244881
  0.051603 -0.00251614
 0.0546595 -0.00257837
 0.0578947 -0.0026354
 0.0613191 -0.00268721
 0.0649437 -0.00273384
 0.0687803 -0.00277544
 0.0728413 -0.0028122
 0.0771397 -0.00284436
 0.0816895 -0.00287216
 0.0865054 -0.00289585
 0.0916029 -0.0029157
 0.0969985  -0.002932
   0.10271 -0.00294484
  0.108755 -0.00295428
  0.115153 -0.0029603
  0.121926 -0.00296294
  0.129095 -0.00296238
  0.136683 -0.00295864
  0.144715 -0.00295191
  0.153216 -0.00294244
  0.162214 -0.00293014
  0.171739 -0.00291472
  0.181821 -0.00289584
  0.192492 -0.00287348
  0.203788 -0.00284713
  0.215744 -0.00281778
  0.228399 -0.00278402
  0.241794 -0.00274759
  0.255972 -0.00270581
   0.27098 -0.00266218
  0.286865 -0.00261025
  0.304824 -0.00254112
  0.324407 -0.00248862
  0.343989 -0.0024436
  0.363571 -0.00239638
  0.383154 -0.0023511
  0.402736 -0.00230309
  0.422319 -0.00225605
  0.441901 -0.00220763
  0.461484 -0.00215933
  0.481066 -0.00211046
  0.500648 -0.00206233
  0.520231 -0.00201369
  0.539813 -0.00196417
  0.559396 -0.00191441
  0.578978 -0.00186389
   0.59856 -0.00181279
  0.618143 -0.00176142
  0.637725 -0.00171031
  0.657308 -0.00165978
   0.67689 -0.00161072
  0.696473 -0.00156341
  0.716055 -0.0015179
  0.735637 -0.00147384
   0.75522 -0.00143162
  0.774802 -0.00139145
  0.794385 -0.00135313
  0.813967 -0.00131632
  0.833549 -0.00128159
  0.853132 -0.00125017
  0.872714 -0.00122184
  0.892297 -0.00119656
  0.911879 -0.00117512
  0.931462 -0.00115727
  0.951044 -0.00114303
  0.970626 -0.0011325
  0.990209 -0.00112588
   1.00979 -0.00112366
   1.02937 -0.00112585
   1.04896 -0.00113199
   1.06854 -0.0011416
   1.08812 -0.00115462
    1.1077 -0.00117137
   1.12729 -0.00119176
   1.14687 -0.00121536
   1.16645 -0.00124209
   1.18603 -0.00127209
   1.20562 -0.00130542
    1.2252 -0.00134279
   1.24478 -0.00138346
   1.26436 -0.00142616
   1.28395 -0.00147056
   1.30353 -0.0015164
   1.32311 -0.00156338
   1.34269 -0.00161167
   1.36228 -0.00166164
   1.38186 -0.00171188
   1.40144 -0.00176305
   1.42102 -0.00181576
   1.44061 -0.00186931
   1.46019 -0.00192382
   1.47977 -0.00197788
   1.49935 -0.00203121
   1.51894 -0.00208314
   1.53852 -0.00213362
    1.5581 -0.00218263
   1.57768 -0.00223154
   1.59727 -0.00227889
   1.61685 -0.00232766
   1.63643 -0.00237403
   1.65601 -0.00242327
    1.6756 -0.00246973
   1.69518 -0.00252334
   1.71314 -0.00259585
   1.72902 -0.00265135
   1.74403 -0.00269845
   1.75821 -0.00274343
    1.7716 -0.00278239
   1.78426 -0.00281792
   1.79621 -0.00284903
   1.80751 -0.00287658
   1.81818 -0.00290029
   1.82826 -0.00292057
   1.83779 -0.00293713
   1.84679 -0.00295043
   1.85529 -0.00296051
   1.86332 -0.00296725
   1.87091 -0.00297065
   1.87808 -0.00297073
   1.88485 -0.00296755
   1.89125 -0.00296129
   1.89729 -0.00295191
     1.903 -0.00293918
    1.9084 -0.00292287
    1.9135 -0.00290286
   1.91831 -0.00287898
   1.92286 -0.00285092
   1.92716 -0.00281838
   1.93122 -0.00278112
   1.93506 -0.00273895
   1.93868 -0.00269164
   1.94211 -0.00263904
   1.94534 -0.00258109
    1.9484 -0.00251783
   1.95129 -0.00244942
   1.95401 -0.00237611
   1.95659 -0.00229826
   1.95903 -0.00221628
   1.96133 -0.00213066
    1.9635 -0.00204198
   1.96555 -0.00195086
   1.96749 -0.00185797
   1.96933 -0.00176399
   1.97106 -0.00166962
   1.97269 -0.00157555
   1.97424 -0.00148243
    1.9757 -0.00139089
   1.97708 -0.00130151
   1.97838 -0.00121482
   1.97961 -0.00113129
   1.98077 -0.00105131
   1.98187 -0.000975243
   1.98291 -0.000903343
   1.98389 -0.000835808
   1.98482 -0.000772768
   1.98569 -0.000714279
   1.98652 -0.000660338
    1.9873 -0.000610884
   1.98804 -0.000565803
   1.98874 -0.000524942
    1.9894 -0.00048811
   1.99002 -0.000455091
   1.99061 -0.000425648
   1.99116 -0.000399534
   1.99169 -0.000376493
   1.99218 -0.000356268
   1.99265 -0.000338605
    1.9931  -0.000323
   1.99355 -0.000308925
   1.99399 -0.000296231
   1.99444 -0.00028494
   1.99488 -0.000275059
   1.99533 -0.00026658
   1.99577 -0.000259472
   1.99622 -0.000253683
   1.99666 -0.000249133
   1.99711 -0.000245718
   1.99755 -0.000243305
     1.998 -0.000241735
   1.99844 -0.000240829
   1.99889 -0.000240397
   1.99933 -0.000240251
   1.99978 -0.000240239
         2 -0.000240239
