         0 0.000893403
 0.0002225 0.000893403
 0.0006675 0.000893347
 0.0011125 0.000893303
 0.0015575 0.000893287
 0.0020025 0.000893297
 0.0024475 0.00089333
 0.0028925 0.000893384
 0.0033375 0.000893458
 0.0037825 0.000893551
 0.0042275 0.000893661
 0.0046725 0.000893787
 0.0051175 0.000893926
 0.0055625 0.000894076
 0.0060075 0.000894237
 0.0064525 0.000894406
 0.0068975 0.000894582
 0.0073476 0.000894765
0.00781612 0.000894958
0.00831203 0.000895165
0.00883694 0.000895386
0.00939255 0.000895619
0.00998065 0.000895864
 0.0106031 0.000896119
  0.011262 0.000896382
 0.0119594 0.000896651
 0.0126977 0.000896924
  0.013479 0.000897197
 0.0143061 0.000897467
 0.0151815 0.000897732
 0.0161082 0.000897986
  0.017089 0.000898226
 0.0181271 0.000898447
  0.019226 0.000898644
 0.0203891 0.000898812
 0.0216203 0.000898947
 0.0229234 0.000899045
 0.0243028 0.000899101
 0.0257628 0.000899111
 0.0273082 0.000899073
  0.028944 0.000898983
 0.0306754 0.000898838
 0.0325081 0.000898642
 0.0344479 0.000898389
 0.0365012 0.000898081
 0.0386746 0.000897718
  0.040975 0.000897304
   0.04341 0.000896839
 0.0459873 0.00089633
 0.0487154 0.00089578
  0.051603 0.000895197
 0.0546595 0.000894585
 0.0578947 0.00089395
 0.0613191 0.000893297
 0.0649437 0.000892632
 0.0687803 0.000891959
 0.0728413 0.00089128
 0.0771397 0.000890599
 0.0816895 0.000889924
 0.0865054 0.000889259
 0.0916029 0.000888605
 0.0969985 0.00088796
   0.10271 0.000887318
  0.108755 0.000886678
  0.115153 0.000886043
  0.121926 0.000885415
  0.129095  0.0008848
  0.136683 0.000884196
  0.144715 0.000883598
  0.153216 0.000882993
  0.162214 0.00088237
  0.171739 0.000881739
  0.181821 0.000881103
  0.192492 0.00088044
  0.203788 0.00087977
  0.215744 0.000879129
  0.228399 0.000878525
  0.241794 0.000877919
  0.255972 0.000877335
   0.27098 0.000876719
  0.286865 0.000876073
  0.304824 0.000875431
  0.324407 0.000874757
  0.343989 0.000874138
  0.363571 0.000873549
  0.383154 0.000872922
  0.402736 0.000872276
  0.422319 0.000871688
  0.441901 0.000871102
  0.461484 0.000870471
  0.481066 0.000869848
  0.500648 0.000869294
  0.520231 0.000868731
  0.539813 0.000868185
  0.559396 0.00086767
  0.578978 0.000867237
   0.59856 0.000866785
  0.618143 0.000866349
  0.637725 0.000865944
  0.657308 0.000865527
   0.67689 0.00086509
  0.696473 0.000864617
  0.716055 0.00086416
  0.735637 0.000863723
   0.75522 0.000863303
  0.774802  0.0008629
  0.794385 0.000862531
  0.813967 0.000862184
  0.833549 0.000861875
  0.853132 0.000861614
  0.872714 0.000861358
  0.892297 0.000861117
  0.911879 0.000860896
  0.931462 0.000860702
  0.951044 0.000860537
  0.970626 0.000860408
  0.990209 0.000860316
   1.00979 0.000860259
   1.02937 0.000860243
   1.04896 0.000860254
   1.06854 0.000860297
   1.08812 0.000860373
    1.1077 0.000860479
   1.12729 0.000860616
   1.14687 0.000860786
   1.16645 0.000860997
   1.18603 0.000861247
   1.20562 0.000861514
    1.2252 0.000861793
   1.24478 0.000862088
   1.26436 0.000862405
   1.28395 0.00086276
   1.30353 0.000863133
   1.32311 0.000863507
   1.34269 0.000863884
   1.36228 0.000864304
   1.38186 0.000864707
   1.40144 0.000865133
   1.42102 0.000865592
   1.44061 0.000866093
   1.46019 0.000866669
   1.47977 0.000867286
   1.49935 0.000867876
   1.51894 0.000868463
   1.53852 0.000869072
    1.5581 0.000869644
   1.57768 0.000870249
   1.59727 0.000870929
   1.61685 0.000871631
   1.63643 0.000872386
   1.65601 0.000873158
    1.6756 0.000873934
   1.69518 0.000874682
   1.71314 0.000875366
   1.72902 0.000876076
   1.74403 0.00087679
   1.75821 0.00087747
    1.7716 0.000878083
   1.78426 0.000878681
   1.79621 0.000879298
   1.80751 0.000879912
   1.81818 0.000880522
   1.82826 0.000881125
   1.83779 0.000881737
   1.84679 0.000882359
   1.85529 0.000882979
   1.86332 0.00088359
   1.87091 0.000884182
   1.87808 0.000884761
   1.88485 0.000885346
   1.89125 0.000885946
   1.89729 0.00088656
     1.903 0.000887182
    1.9084 0.000887812
    1.9135 0.000888453
   1.91831 0.000889104
   1.92286 0.000889764
   1.92716 0.000890431
   1.93122  0.0008911
   1.93506 0.000891763
   1.93868 0.000892414
   1.94211 0.000893047
   1.94534 0.000893658
    1.9484 0.000894241
   1.95129 0.000894791
   1.95401 0.000895304
   1.95659 0.000895776
   1.95903 0.000896204
   1.96133 0.000896585
    1.9635 0.000896917
   1.96555 0.000897198
   1.96749 0.000897426
   1.96933 0.000897601
   1.97106 0.000897724
   1.97269 0.000897796
   1.97424 0.000897819
    1.9757 0.000897797
   1.97708 0.000897731
   1.97838 0.000897625
   1.97961 0.000897484
   1.98077 0.000897313
   1.98187 0.000897114
   1.98291 0.000896894
   1.98389 0.000896657
   1.98482 0.000896406
   1.98569 0.000896146
   1.98652 0.000895881
    1.9873 0.000895613
   1.98804 0.000895347
   1.98874 0.000895084
    1.9894 0.000894827
   1.99002 0.000894578
   1.99061 0.00089434
   1.99116 0.000894112
   1.99169 0.000893897
   1.99218 0.000893695
   1.99265 0.000893507
    1.9931 0.00089333
   1.99355 0.000893158
   1.99399 0.000892994
   1.99444 0.000892837
   1.99488 0.00089269
   1.99533 0.000892555
   1.99577 0.000892433
   1.99622 0.000892325
   1.99666 0.000892235
   1.99711 0.000892163
   1.99755 0.00089211
     1.998 0.000892078
   1.99844 0.000892069
   1.99889 0.000892085
   1.99933 0.000892128
   1.99978 0.000892184
         2 0.000892184
