         0          0
 0.0002225 8.42131e-06
 0.0006675 2.53683e-05
 0.0011125 4.26262e-05
 0.0015575 6.04022e-05
 0.0020025 7.89093e-05
 0.0024475 9.83776e-05
 0.0028925 0.00011906
 0.0033375 0.000141229
 0.0037825 0.000165159
 0.0042275 0.000191092
 0.0046725 0.000219208
 0.0051175 0.000249597
 0.0055625 0.000282261
 0.0060075 0.000317113
 0.0064525 0.000353985
 0.0068975 0.000392634
 0.0073476 0.000433205
0.00781612 0.000476588
0.00831203 0.000523225
0.00883694 0.000572646
0.00939255 0.000624131
0.00998065 0.000676753
 0.0106031 0.000729503
  0.011262 0.000781513
 0.0119594 0.000832264
 0.0126977 0.000881688
  0.013479 0.000930026
 0.0143061 0.00097736
 0.0151815 0.00102301
 0.0161082 0.00106507
  0.017089 0.00110037
 0.0181271 0.00112515
  0.019226 0.00113596
 0.0203891 0.00113087
 0.0216203 0.00111072
 0.0229234 0.00107986
 0.0243028 0.00104573
 0.0257628 0.00101631
 0.0273082 0.000996116
  0.028944 0.000983624
 0.0306754 0.000973562
 0.0325081 0.000962316
 0.0344479 0.000948929
 0.0365012 0.000931219
 0.0386746 0.000903286
  0.040975 0.000856353
   0.04341 0.000785567
 0.0459873 0.000694163
 0.0487154 0.000588072
  0.051603 0.000468391
 0.0546595 0.000336839
 0.0578947 0.000195351
 0.0613191 5.24941e-05
 0.0649437 -5.70411e-05
 0.0687803 -0.000115247
 0.0728413 -0.000144972
 0.0771397 -0.000131711
 0.0816895 -6.17713e-05
 0.0865054 6.06587e-05
 0.0916029 0.000241625
 0.0969985 0.000430089
   0.10271 0.000550628
  0.108755 0.000597861
  0.115153 0.000596587
  0.121926 0.000617841
  0.129095 0.000582635
  0.136683 0.000368647
  0.144715 6.08206e-05
  0.153216 -0.000166791
  0.162214 -0.000157401
  0.171739 -3.57828e-05
  0.181821 0.000140143
  0.192492 0.000343726
  0.203788 0.000477649
  0.215744 0.000255668
  0.228399 -3.2889e-05
  0.241794 -0.000246094
  0.255972 3.98289e-06
   0.27098 7.27227e-05
  0.286865 0.000233655
  0.304824 -4.62321e-05
  0.324407 -0.000850894
  0.343989 -0.00155749
  0.363571 -0.0021646
  0.383154 -0.00205428
  0.402736 -0.00186974
  0.422319 -0.00134278
  0.441901 -0.000188139
  0.461484 0.000649869
  0.481066 0.000583937
  0.500648 0.000376123
  0.520231 0.000128508
  0.539813 -0.000410762
  0.559396 -0.000904964
  0.578978 -0.00112334
   0.59856 -0.00137275
  0.618143 -0.00135914
  0.637725 -0.00104392
  0.657308 -0.000607184
   0.67689 -0.000506805
  0.696473 -0.000647367
  0.716055 -0.000467811
  0.735637 -0.000155019
   0.75522 -0.000232502
  0.774802 -0.000403022
  0.794385 -0.000633656
  0.813967 -0.00118949
  0.833549 -0.00177139
  0.853132  -0.002211
  0.872714 -0.00243742
  0.892297 -0.00238706
  0.911879 -0.00251324
  0.931462 -0.00264445
  0.951044 -0.00249828
  0.970626 -0.00242526
  0.990209 -0.00258987
   1.00979 -0.00267906
   1.02937 -0.00259257
   1.04896 -0.00253601
   1.06854 -0.00239444
   1.08812 -0.00200459
    1.1077 -0.00170342
   1.12729 -0.00129133
   1.14687 -0.000804744
   1.16645 -0.000512693
   1.18603 -0.000202634
   1.20562 0.000260492
    1.2252 0.000581031
   1.24478 0.00103459
   1.26436 0.00138729
   1.28395 0.00156476
   1.30353 0.00120703
   1.32311 0.000515166
   1.34269 -4.3792e-05
   1.36228 -8.11048e-05
   1.38186 -0.000304956
   1.40144 -0.000530344
   1.42102 -0.00065777
   1.44061 -0.00135675
   1.46019 -0.00225789
   1.47977 -0.00297429
   1.49935 -0.00296424
   1.51894 -0.00226629
   1.53852 -0.00169406
    1.5581 -0.00170861
   1.57768 -0.00223769
   1.59727 -0.00252569
   1.61685 -0.00212171
   1.63643 -0.00102453
   1.65601 0.000164827
    1.6756 0.000729347
   1.69518 0.00153423
   1.71314 0.00215822
   1.72902 0.00274559
   1.74403 0.00285466
   1.75821 0.00236446
    1.7716 0.00198626
   1.78426 0.00192876
   1.79621 0.00194064
   1.80751 0.00188075
   1.81818 0.00172881
   1.82826 0.00145072
   1.83779 0.00106731
   1.84679 0.000675685
   1.85529 0.000463934
   1.86332 0.000315766
   1.87091 9.75887e-05
   1.87808 -0.000185621
   1.88485 -0.000438903
   1.89125 -0.000540702
   1.89729 -0.000567994
     1.903 -0.000511021
    1.9084 -0.000327147
    1.9135 -0.00011727
   1.91831 3.51479e-05
   1.92286 0.000125273
   1.92716 0.000187627
   1.93122 0.000245883
   1.93506 0.00029712
   1.93868 0.000346724
   1.94211 0.000425071
   1.94534 0.000555801
    1.9484 0.000744056
   1.95129 0.000961412
   1.95401 0.00117684
   1.95659  0.0013967
   1.95903 0.00162752
   1.96133 0.00185578
    1.9635 0.00207564
   1.96555 0.00228552
   1.96749 0.00247468
   1.96933 0.00263127
   1.97106 0.00275538
   1.97269 0.00285616
   1.97424 0.00293953
    1.9757 0.00300436
   1.97708 0.00304668
   1.97838 0.00306352
   1.97961 0.00305433
   1.98077 0.00302118
   1.98187 0.00296799
   1.98291 0.00289928
   1.98389 0.00281912
   1.98482 0.00273084
   1.98569 0.00263718
   1.98652 0.00254029
    1.9873 0.00244181
   1.98804 0.00234288
   1.98874 0.00224418
    1.9894 0.00214609
   1.99002 0.00204877
   1.99061 0.00195234
   1.99116 0.00185687
   1.99169 0.00176255
   1.99218 0.00166964
   1.99265 0.00157849
    1.9931 0.00148798
   1.99355 0.00139591
   1.99399 0.00130158
   1.99444 0.00120543
   1.99488 0.00110795
   1.99533 0.00100966
   1.99577 0.000911052
   1.99622 0.000812554
   1.99666 0.000714494
   1.99711 0.000617083
   1.99755 0.000520426
     1.998 0.000424535
   1.99844 0.000329353
   1.99889 0.000234777
   1.99933 0.000140666
   1.99978 4.68534e-05
         2          0
