         0          0
 0.0002225  0.0106983
 0.0006675  0.0320837
 0.0011125  0.0534469
 0.0015575  0.0747654
 0.0020025  0.0960054
 0.0024475   0.117122
 0.0028925   0.138061
 0.0033375   0.158762
 0.0037825    0.17916
 0.0042275   0.199189
 0.0046725   0.218785
 0.0051175    0.23789
 0.0055625   0.256454
 0.0060075   0.274432
 0.0064525   0.291792
 0.0068975   0.308512
 0.0073476    0.32476
0.00781612   0.340961
0.00831203   0.357317
0.00883694   0.373754
0.00939255     0.3902
0.00998065   0.406583
 0.0106031   0.422835
  0.011262   0.438893
 0.0119594     0.4547
 0.0126977   0.470206
  0.013479    0.48537
 0.0143061   0.500158
 0.0151815   0.514542
 0.0161082   0.528502
  0.017089   0.542026
 0.0181271   0.555103
  0.019226   0.567732
 0.0203891   0.579913
 0.0216203   0.591651
 0.0229234    0.60295
 0.0243028   0.613819
 0.0257628   0.624265
 0.0273082   0.634303
  0.028944   0.643955
 0.0306754   0.653256
 0.0325081   0.662242
 0.0344479   0.670942
 0.0365012   0.679377
 0.0386746   0.687562
  0.040975   0.695512
   0.04341   0.703236
 0.0459873   0.710745
 0.0487154   0.718061
  0.051603   0.725199
 0.0546595    0.73216
 0.0578947   0.738974
 0.0613191   0.745704
 0.0649437   0.752394
 0.0687803   0.759058
 0.0728413   0.765655
 0.0771397   0.772149
 0.0816895   0.778589
 0.0865054   0.785014
 0.0916029   0.791426
 0.0969985   0.797916
   0.10271   0.804607
  0.108755   0.811392
  0.115153    0.81829
  0.121926   0.825351
  0.129095   0.832482
  0.136683   0.839539
  0.144715    0.84658
  0.153216   0.853807
  0.162214   0.861158
  0.171739   0.868605
  0.181821   0.876342
  0.192492   0.884505
  0.203788   0.893248
  0.215744     0.9026
  0.228399    0.91206
  0.241794    0.92132
  0.255972   0.930285
   0.27098   0.940196
  0.286865   0.950596
  0.304824   0.961219
  0.324407   0.972146
  0.343989   0.982579
  0.363571   0.992652
  0.383154    1.00213
  0.402736    1.01112
  0.422319     1.0192
  0.441901    1.02677
  0.461484    1.03429
  0.481066    1.04199
  0.500648     1.0491
  0.520231    1.05581
  0.539813    1.06214
  0.559396      1.068
  0.578978     1.0737
   0.59856    1.07908
  0.618143    1.08462
  0.637725    1.09067
  0.657308    1.09626
   0.67689    1.10131
  0.696473    1.10634
  0.716055    1.11134
  0.735637    1.11604
   0.75522    1.12044
  0.774802    1.12485
  0.794385    1.12887
  0.813967    1.13223
  0.833549    1.13505
  0.853132    1.13789
  0.872714    1.14063
  0.892297    1.14294
  0.911879    1.14492
  0.931462    1.14629
  0.951044    1.14702
  0.970626    1.14731
  0.990209    1.14728
   1.00979    1.14688
   1.02937    1.14594
   1.04896    1.14444
   1.06854    1.14256
   1.08812    1.14068
    1.1077    1.13896
   1.12729    1.13699
   1.14687    1.13454
   1.16645    1.13147
   1.18603    1.12804
   1.20562    1.12431
    1.2252    1.12035
   1.24478    1.11586
   1.26436     1.1112
   1.28395    1.10697
   1.30353    1.10248
   1.32311    1.09808
   1.34269    1.09354
   1.36228    1.08817
   1.38186    1.08275
   1.40144    1.07764
   1.42102    1.07176
   1.44061    1.06496
   1.46019    1.05803
   1.47977    1.05068
   1.49935    1.04335
   1.51894    1.03569
   1.53852    1.02784
    1.5581    1.02032
   1.57768    1.01287
   1.59727    1.00554
   1.61685   0.997555
   1.63643   0.988831
   1.65601   0.979532
    1.6756   0.969984
   1.69518   0.959879
   1.71314   0.950187
   1.72902   0.941119
   1.74403   0.932111
   1.75821   0.923555
    1.7716   0.915231
   1.78426   0.906872
   1.79621   0.898562
   1.80751   0.890378
   1.81818   0.882516
   1.82826   0.874751
   1.83779   0.866919
   1.84679   0.859249
   1.85529    0.85173
   1.86332   0.844424
   1.87091   0.837263
   1.87808    0.83012
   1.88485   0.822938
   1.89125   0.815852
   1.89729   0.808906
     1.903   0.802107
    1.9084   0.795449
    1.9135    0.78882
   1.91831   0.782154
   1.92286   0.775521
   1.92716   0.768931
   1.93122   0.762295
   1.93506   0.755579
   1.93868   0.748784
   1.94211   0.741907
   1.94534   0.734951
    1.9484   0.727919
   1.95129   0.720781
   1.95401   0.713488
   1.95659   0.706014
   1.95903   0.698346
   1.96133   0.690466
    1.9635   0.682351
   1.96555   0.673988
   1.96749   0.665362
   1.96933   0.656446
   1.97106   0.647207
   1.97269   0.637619
   1.97424   0.627666
    1.9757   0.617335
   1.97708   0.606613
   1.97838   0.595489
   1.97961   0.583951
   1.98077   0.571987
   1.98187   0.559586
   1.98291   0.546738
   1.98389    0.53344
   1.98482   0.519691
   1.98569   0.505496
   1.98652   0.490871
    1.9873   0.475837
   1.98804   0.460428
   1.98874   0.444683
    1.9894   0.428655
   1.99002   0.412402
   1.99061    0.39599
   1.99116    0.37949
   1.99169   0.362975
   1.99218    0.34652
   1.99265     0.3302
    1.9931   0.313814
   1.99355   0.296933
   1.99399   0.279383
   1.99444   0.261187
   1.99488   0.242375
   1.99533   0.222991
   1.99577   0.203086
   1.99622   0.182719
   1.99666   0.161957
   1.99711   0.140868
   1.99755   0.119522
     1.998  0.0979833
   1.99844   0.076311
   1.99889  0.0545537
   1.99933  0.0327486
   1.99978    0.01092
         2          0
