         0          0
 0.0002225 8.45559e-06
 0.0006675 2.54707e-05
 0.0011125 4.27951e-05
 0.0015575 6.06346e-05
 0.0020025 7.92011e-05
 0.0024475 9.87239e-05
 0.0028925 0.000119455
 0.0033375 0.000141668
 0.0037825 0.000165635
 0.0042275 0.000191596
 0.0046725 0.000219728
 0.0051175 0.000250123
 0.0055625 0.000282782
 0.0060075 0.000317616
 0.0064525 0.000354459
 0.0068975 0.000393067
 0.0073476 0.000433582
0.00781612 0.000476887
0.00831203 0.000523415
0.00883694 0.000572691
0.00939255 0.000623991
0.00998065 0.000676393
 0.0106031 0.000728906
  0.011262 0.000780698
 0.0119594 0.000831289
 0.0126977 0.000880649
  0.013479 0.000929035
 0.0143061 0.000976506
 0.0151815 0.00102234
 0.0161082 0.00106454
  0.017089 0.00109994
 0.0181271 0.00112476
  0.019226 0.00113561
 0.0203891 0.00113061
 0.0216203 0.00111063
 0.0229234 0.00108004
 0.0243028 0.00104623
 0.0257628 0.00101714
 0.0273082 0.000997118
  0.028944 0.000984576
 0.0306754 0.000974343
 0.0325081 0.000962976
 0.0344479 0.000949562
 0.0365012 0.000931787
 0.0386746 0.000903699
  0.040975 0.000856593
   0.04341 0.000785752
 0.0459873 0.000694468
 0.0487154 0.000588404
  0.051603 0.000468435
 0.0546595 0.000336418
 0.0578947 0.000194406
 0.0613191 5.10377e-05
 0.0649437 -5.89519e-05
 0.0687803 -0.000117447
 0.0728413 -0.000147305
 0.0771397 -0.0001341
 0.0816895 -6.37651e-05
 0.0865054 5.93904e-05
 0.0916029 0.000240878
 0.0969985 0.000429538
   0.10271 0.000550178
  0.108755 0.000597944
  0.115153 0.000597146
  0.121926 0.000618823
  0.129095 0.000583921
  0.136683 0.000369626
  0.144715 6.18771e-05
  0.153216 -0.000165402
  0.162214 -0.000156633
  0.171739 -3.59283e-05
  0.181821 0.000139991
  0.192492 0.000344345
  0.203788 0.000478731
  0.215744 0.000256307
  0.228399 -3.19863e-05
  0.241794 -0.000245622
  0.255972 3.55349e-06
   0.27098 7.27928e-05
  0.286865 0.000234308
  0.304824 -4.51059e-05
  0.324407 -0.000851857
  0.343989 -0.00155889
  0.363571 -0.00216479
  0.383154 -0.00205413
  0.402736 -0.00187003
  0.422319 -0.00134288
  0.441901 -0.000187557
  0.461484 0.000649919
  0.481066 0.000582573
  0.500648 0.000374225
  0.520231 0.000127667
  0.539813 -0.000410832
  0.559396 -0.000905303
  0.578978 -0.00112372
   0.59856 -0.00137239
  0.618143 -0.0013588
  0.637725 -0.00104348
  0.657308 -0.000605825
   0.67689 -0.000504953
  0.696473 -0.000645907
  0.716055 -0.000466948
  0.735637 -0.000154833
   0.75522 -0.000233035
  0.774802 -0.000403315
  0.794385 -0.000633498
  0.813967 -0.00118958
  0.833549 -0.00177174
  0.853132 -0.00221107
  0.872714 -0.0024373
  0.892297 -0.00238707
  0.911879 -0.00251308
  0.931462 -0.00264374
  0.951044 -0.00249753
  0.970626 -0.0024254
  0.990209 -0.00259053
   1.00979 -0.00267939
   1.02937 -0.00259272
   1.04896 -0.00253612
   1.06854 -0.00239453
   1.08812 -0.00200478
    1.1077 -0.00170364
   1.12729 -0.00129132
   1.14687 -0.000804443
   1.16645 -0.000512949
   1.18603 -0.000203533
   1.20562 0.000259986
    1.2252 0.000581426
   1.24478 0.00103523
   1.26436 0.00138772
   1.28395  0.0015649
   1.30353 0.00120688
   1.32311 0.000514999
   1.34269 -4.47147e-05
   1.36228 -8.25753e-05
   1.38186 -0.000305825
   1.40144 -0.000530757
   1.42102 -0.000657778
   1.44061 -0.00135637
   1.46019 -0.00225706
   1.47977 -0.00297348
   1.49935 -0.00296402
   1.51894 -0.00226655
   1.53852 -0.00169381
    1.5581 -0.00170846
   1.57768 -0.00223757
   1.59727  -0.002526
   1.61685 -0.00212257
   1.63643 -0.00102453
   1.65601 0.000165931
    1.6756 0.000729154
   1.69518 0.00153192
   1.71314 0.00215594
   1.72902 0.00274452
   1.74403 0.00285455
   1.75821 0.00236448
    1.7716 0.00198663
   1.78426 0.00193013
   1.79621 0.00194275
   1.80751 0.00188262
   1.81818 0.00173027
   1.82826 0.00145197
   1.83779  0.0010675
   1.84679 0.000675436
   1.85529 0.000464334
   1.86332 0.000316416
   1.87091 9.83595e-05
   1.87808 -0.000184562
   1.88485 -0.00043763
   1.89125 -0.000540036
   1.89729 -0.000568255
     1.903 -0.000511446
    1.9084 -0.000327792
    1.9135 -0.000118581
   1.91831 3.36923e-05
   1.92286 0.000124155
   1.92716 0.000186896
   1.93122 0.000245315
   1.93506 0.000296267
   1.93868 0.000345248
   1.94211 0.000422932
   1.94534 0.000553473
    1.9484 0.00074205
   1.95129 0.000959899
   1.95401 0.00117587
   1.95659 0.00139609
   1.95903   0.001627
   1.96133 0.00185524
    1.9635 0.00207506
   1.96555 0.00228491
   1.96749 0.00247417
   1.96933 0.00263103
   1.97106  0.0027554
   1.97269 0.00285631
   1.97424 0.00293976
    1.9757 0.00300471
   1.97708 0.00304725
   1.97838 0.00306434
   1.97961  0.0030554
   1.98077 0.00302244
   1.98187 0.00296935
   1.98291 0.00290067
   1.98389 0.00282052
   1.98482 0.00273226
   1.98569 0.00263861
   1.98652 0.00254172
    1.9873 0.00244321
   1.98804 0.00234424
   1.98874 0.00224549
    1.9894 0.00214736
   1.99002 0.00205002
   1.99061 0.00195355
   1.99116 0.00185807
   1.99169 0.00176373
   1.99218 0.00167079
   1.99265 0.00157961
    1.9931 0.00148908
   1.99355 0.00139697
   1.99399 0.00130259
   1.99444 0.00120638
   1.99488 0.00110883
   1.99533 0.00101047
   1.99577 0.000911785
   1.99622 0.000813206
   1.99666 0.000715062
   1.99711 0.000617569
   1.99755 0.000520832
     1.998 0.000424864
   1.99844 0.000329607
   1.99889 0.000234957
   1.99933 0.000140774
   1.99978 4.68895e-05
         2          0
