         0          0
 0.0002225 -1.12795e-05
 0.0006675 -0.000213915
 0.0011125 -0.000957153
 0.0015575 -0.00258709
 0.0020025 -0.0053896
 0.0024475 -0.00953941
 0.0028925 -0.0150631
 0.0033375 -0.0218286
 0.0037825 -0.0295639
 0.0042275 -0.0379002
 0.0046725 -0.0464259
 0.0051175 -0.0547397
 0.0055625 -0.0624921
 0.0060075 -0.0694122
 0.0064525 -0.0753173
 0.0068975 -0.0801113
 0.0073476 -0.0838147
0.00781612 -0.0864937
0.00831203 -0.0881173
0.00883694 -0.0886402
0.00939255 -0.0880715
0.00998065 -0.0864716
 0.0106031 -0.0839456
  0.011262 -0.0806329
 0.0119594 -0.0766943
 0.0126977 -0.0722995
  0.013479 -0.0676139
 0.0143061 -0.0627895
 0.0151815 -0.0579569
 0.0161082 -0.0532221
  0.017089 -0.0486648
 0.0181271 -0.0443405
  0.019226 -0.0402834
 0.0203891 -0.0365104
 0.0216203 -0.0330254
 0.0229234 -0.0298228
 0.0243028 -0.0268896
 0.0257628 -0.0242085
 0.0273082 -0.0217601
  0.028944 -0.0195258
 0.0306754 -0.0174881
 0.0325081 -0.0156321
 0.0344479 -0.0139451
 0.0365012 -0.0124165
 0.0386746 -0.0110345
  0.040975 -0.00978518
   0.04341 -0.00865578
 0.0459873 -0.00763948
 0.0487154 -0.00672952
  0.051603 -0.00591431
 0.0546595 -0.00518503
 0.0578947 -0.00454123
 0.0613191 -0.00397705
 0.0649437 -0.00347363
 0.0687803 -0.00302201
 0.0728413 -0.00262062
 0.0771397 -0.00225637
 0.0816895 -0.00192105
 0.0865054 -0.00161946
 0.0916029 -0.0013493
 0.0969985 -0.00110518
   0.10271 -0.000882915
  0.108755 -0.000674295
  0.115153 -0.000477481
  0.121926 -0.000293915
  0.129095 -0.000128607
  0.136683 2.71053e-05
  0.144715 0.000173004
  0.153216 0.000312854
  0.162214 0.000442681
  0.171739 0.000555795
  0.181821 0.000665788
  0.192492 0.00076476
  0.203788 0.000867397
  0.215744 0.000962046
  0.228399 0.00105067
  0.241794 0.00113425
  0.255972 0.00122933
   0.27098 0.00128793
  0.286865 0.00137938
  0.304824 0.00146703
  0.324407 0.00151591
  0.343989 0.00160792
  0.363571 0.00168063
  0.383154 0.00175293
  0.402736 0.00181329
  0.422319 0.00185949
  0.441901 0.00192114
  0.461484 0.00196139
  0.481066 0.00200922
  0.500648 0.00204096
  0.520231 0.00208778
  0.539813 0.00213032
  0.559396 0.00217126
  0.578978 0.00220636
   0.59856 0.00224388
  0.618143 0.00227551
  0.637725 0.00230375
  0.657308 0.00232701
   0.67689 0.00236335
  0.696473 0.00239276
  0.716055  0.0024155
  0.735637 0.00243295
   0.75522 0.00245509
  0.774802  0.0024682
  0.794385  0.0024846
  0.813967 0.00250904
  0.833549 0.00252074
  0.853132 0.00253716
  0.872714 0.00255084
  0.892297 0.00255972
  0.911879 0.00256206
  0.931462 0.00256397
  0.951044 0.00257227
  0.970626  0.0025837
  0.990209 0.00259226
   1.00979 0.00258948
   1.02937 0.00259465
   1.04896 0.00260366
   1.06854 0.00260277
   1.08812 0.00259793
    1.1077 0.00259324
   1.12729 0.00258372
   1.14687  0.0025722
   1.16645 0.00256124
   1.18603   0.002549
   1.20562 0.00254128
    1.2252 0.00253074
   1.24478 0.00251518
   1.26436 0.00249776
   1.28395 0.00247553
   1.30353 0.00244563
   1.32311 0.00241304
   1.34269 0.00239067
   1.36228 0.00236476
   1.38186 0.00233137
   1.40144 0.00230158
   1.42102 0.00227066
   1.44061 0.00223907
   1.46019 0.00220538
   1.47977 0.00216164
   1.49935  0.0021237
   1.51894 0.00207273
   1.53852 0.00201465
    1.5581 0.00196635
   1.57768 0.00189882
   1.59727 0.00182204
   1.61685 0.00176018
   1.63643 0.00167174
   1.65601 0.00161496
    1.6756 0.00152085
   1.69518 0.00143827
   1.71314 0.00133765
   1.72902 0.00124521
   1.74403 0.00118075
   1.75821 0.00108764
    1.7716 0.000997278
   1.78426 0.000892737
   1.79621 0.000797282
   1.80751 0.000690685
   1.81818 0.000584832
   1.82826 0.000469076
   1.83779 0.000344289
   1.84679 0.000209997
   1.85529 7.22246e-05
   1.86332 -7.28961e-05
   1.87091 -0.000227007
   1.87808 -0.000390544
   1.88485 -0.000567186
   1.89125 -0.000761829
   1.89729 -0.000971385
     1.903 -0.00119324
    1.9084 -0.00143901
    1.9135 -0.00170741
   1.91831 -0.00199895
   1.92286 -0.00232122
   1.92716 -0.00267807
   1.93122 -0.00307793
   1.93506 -0.00352218
   1.93868 -0.0040165
   1.94211 -0.00457643
   1.94534 -0.0052122
    1.9484 -0.00592636
   1.95129 -0.0067271
   1.95401 -0.00762568
   1.95659 -0.00862967
   1.95903 -0.00974703
   1.96133 -0.0109887
    1.9635 -0.0123626
   1.96555 -0.0138755
   1.96749 -0.0155385
   1.96933  -0.017366
   1.97106 -0.0193738
   1.97269 -0.0215786
   1.97424  -0.023998
    1.9757 -0.0266485
   1.97708 -0.0295456
   1.97838 -0.0327049
   1.97961 -0.0361396
   1.98077  -0.039857
   1.98187  -0.043854
   1.98291 -0.0481134
   1.98389 -0.0526002
   1.98482  -0.057258
   1.98569 -0.0620064
   1.98652 -0.0667398
    1.9873 -0.0713286
   1.98804 -0.0756233
   1.98874 -0.0794616
    1.9894  -0.082678
   1.99002 -0.0851157
   1.99061 -0.0866399
   1.99116 -0.0871494
   1.99169 -0.0865873
   1.99218  -0.084947
   1.99265  -0.082275
    1.9931  -0.078603
   1.99355 -0.0738665
   1.99399 -0.0680469
   1.99444 -0.0612399
   1.99488  -0.053625
   1.99533 -0.0454678
   1.99577 -0.0371098
   1.99622 -0.0289425
   1.99666 -0.0213673
   1.99711 -0.0147439
   1.99755 -0.00933708
     1.998 -0.00527542
   1.99844 -0.00253245
   1.99889 -0.000937036
   1.99933 -0.00020945
   1.99978 -1.10462e-05
         2          0
