         0          0
 0.0002225    -9.5605
 0.0006675   -27.5481
 0.0011125   -52.4539
 0.0015575   -92.0867
 0.0020025   -152.837
 0.0024475    -238.74
 0.0028925   -350.757
 0.0033375   -486.567
 0.0037825    -640.97
 0.0042275   -806.767
 0.0046725   -975.859
 0.0051175   -1140.32
 0.0055625   -1293.25
 0.0060075    -1429.3
 0.0064525   -1544.88
 0.0068975    -1638.1
 0.0073476   -1709.39
0.00781612   -1760.06
0.00831203   -1789.47
0.00883694   -1796.75
0.00939255   -1782.13
0.00998065   -1746.86
 0.0106031   -1693.11
  0.011262    -1623.7
 0.0119594   -1541.91
 0.0126977   -1451.19
  0.013479   -1354.92
 0.0143061   -1256.16
 0.0151815    -1157.6
 0.0161082   -1061.38
  0.017089   -969.136
 0.0181271   -882.013
  0.019226   -800.705
 0.0203891   -725.559
 0.0216203   -656.645
 0.0229234   -593.828
 0.0243028    -536.82
 0.0257628   -485.227
 0.0273082   -438.615
  0.028944   -396.547
 0.0306754   -358.596
 0.0325081   -324.395
 0.0344479   -293.605
 0.0365012   -265.952
 0.0386746   -241.134
  0.040975   -218.809
   0.04341   -198.671
 0.0459873   -180.534
 0.0487154    -164.23
  0.051603   -149.521
 0.0546595   -136.252
 0.0578947   -124.435
 0.0613191   -113.985
 0.0649437    -104.58
 0.0687803   -96.0819
 0.0728413   -88.4829
 0.0771397   -81.5543
 0.0816895    -75.159
 0.0865054   -69.4236
 0.0916029   -64.3393
 0.0969985   -59.8021
   0.10271   -55.6999
  0.108755   -51.8839
  0.115153   -48.3144
  0.121926   -45.0293
  0.129095   -42.1335
  0.136683   -39.4063
  0.144715   -36.8613
  0.153216   -34.4558
  0.162214   -32.2431
  0.171739    -30.357
  0.181821   -28.5586
  0.192492   -26.9576
  0.203788   -25.2404
  0.215744   -23.7611
  0.228399   -22.3733
  0.241794   -21.0884
  0.255972   -19.6321
   0.27098   -18.9504
  0.286865   -17.4289
  0.304824   -15.7001
  0.324407    -15.597
  0.343989   -14.5323
  0.363571   -13.6296
  0.383154   -12.7183
  0.402736   -11.9361
  0.422319   -11.3342
  0.441901   -10.5054
  0.461484   -10.0729
  0.481066   -9.38944
  0.500648   -9.07824
  0.520231   -8.45503
  0.539813    -7.8989
  0.559396   -7.42257
  0.578978   -7.05107
   0.59856   -6.66023
  0.618143   -6.31699
  0.637725   -5.91672
  0.657308   -5.62042
   0.67689   -5.13325
  0.696473   -4.82356
  0.716055   -4.58865
  0.735637   -4.42373
   0.75522   -4.15767
  0.774802   -4.07152
  0.794385   -3.95217
  0.813967   -3.68004
  0.833549   -3.66744
  0.853132   -3.51339
  0.872714   -3.36777
  0.892297   -3.26949
  0.911879   -3.29006
  0.931462   -3.33501
  0.951044   -3.25452
  0.970626   -3.10994
  0.990209   -3.02875
   1.00979   -3.16242
   1.02937    -3.1444
   1.04896   -3.03585
   1.06854   -3.09861
   1.08812   -3.19486
    1.1077   -3.21868
   1.12729    -3.2978
   1.14687   -3.41094
   1.16645   -3.56069
   1.18603   -3.74769
   1.20562   -3.81696
    1.2252   -3.91478
   1.24478   -4.10489
   1.26436   -4.34705
   1.28395   -4.61917
   1.30353   -4.96457
   1.32311   -5.32136
   1.34269   -5.49606
   1.36228   -5.78947
   1.38186   -6.19982
   1.40144   -6.53496
   1.42102   -6.94675
   1.44061   -7.36897
   1.46019   -7.83924
   1.47977   -8.47117
   1.49935   -8.84354
   1.51894   -9.39516
   1.53852   -10.0943
    1.5581   -10.5705
   1.57768   -11.3701
   1.59727   -12.2542
   1.61685   -12.8398
   1.63643   -13.9753
   1.65601   -14.5116
    1.6756   -15.5372
   1.69518   -16.0727
   1.71314   -17.9643
   1.72902   -19.4494
   1.74403   -20.2522
   1.75821    -21.657
    1.7716    -22.882
   1.78426   -24.3996
   1.79621   -25.7952
   1.80751   -27.4374
   1.81818   -29.0581
   1.82826   -30.9427
   1.83779   -33.0201
   1.84679   -35.2712
   1.85529   -37.5352
   1.86332    -39.936
   1.87091   -42.5404
   1.87808   -45.3559
   1.88485   -48.4285
   1.89125   -51.8776
   1.89729   -55.6605
     1.903   -59.7243
    1.9084   -64.2987
    1.9135   -69.3828
   1.91831   -74.9677
   1.92286   -81.1514
   1.92716   -87.9713
   1.93122   -95.5603
   1.93506   -103.919
   1.93868   -113.123
   1.94211   -123.437
   1.94534    -135.04
    1.9484   -147.955
   1.95129   -162.321
   1.95401   -178.362
   1.95659   -196.249
   1.95903   -216.168
   1.96133   -238.382
    1.9635   -263.097
   1.96555   -290.499
   1.96749   -320.878
   1.96933   -354.603
   1.97106   -392.065
   1.97269   -433.676
   1.97424   -479.853
    1.9757   -530.983
   1.97708   -587.424
   1.97838   -649.526
   1.97961   -717.577
   1.98077   -791.736
   1.98187   -871.946
   1.98291   -957.857
   1.98389   -1048.75
   1.98482   -1143.48
   1.98569   -1240.39
   1.98652   -1337.34
    1.9873   -1431.68
   1.98804   -1520.39
   1.98874   -1600.15
    1.9894   -1667.61
   1.99002   -1719.58
   1.99061   -1753.29
   1.99116   -1766.69
   1.99169   -1758.59
   1.99218    -1728.8
   1.99265   -1678.24
    1.9931   -1607.54
   1.99355   -1515.43
   1.99399   -1401.53
   1.99444   -1267.71
   1.99488   -1117.51
   1.99533    -956.16
   1.99577   -790.409
   1.99622   -627.987
   1.99666   -476.788
   1.99711   -343.826
   1.99755   -234.163
     1.998    -150.05
   1.99844   -90.5351
   1.99889   -51.6635
   1.99933   -27.1791
   1.99978   -9.43857
         2          0
