         0          0
 0.0002225 0.000138631
 0.0006675 0.00124605
 0.0011125 0.00345677
 0.0015575 0.00676189
 0.0020025  0.0111432
 0.0024475  0.0165692
 0.0028925  0.0229926
 0.0033375  0.0303493
 0.0037825  0.0385587
 0.0042275  0.0475267
 0.0046725   0.057149
 0.0051175  0.0673155
 0.0055625  0.0779149
 0.0060075  0.0888384
 0.0064525  0.0999834
 0.0068975   0.111256
 0.0073476   0.122705
0.00781612   0.134594
0.00831203   0.147063
0.00883694   0.160055
0.00939255   0.173507
0.00998065   0.187347
 0.0106031   0.201502
  0.011262   0.215897
 0.0119594   0.230456
 0.0126977   0.245109
  0.013479   0.259791
 0.0143061    0.27444
 0.0151815   0.289005
 0.0161082    0.30344
  0.017089   0.317707
 0.0181271   0.331774
  0.019226   0.345616
 0.0203891   0.359215
 0.0216203   0.372556
 0.0229234   0.385631
 0.0243028   0.398432
 0.0257628    0.41096
 0.0273082   0.423213
  0.028944   0.435195
 0.0306754   0.446914
 0.0325081   0.458377
 0.0344479   0.469597
 0.0365012   0.480588
 0.0386746   0.491363
  0.040975   0.501942
   0.04341   0.512341
 0.0459873   0.522582
 0.0487154   0.532688
  0.051603   0.542684
 0.0546595   0.552597
 0.0578947   0.562455
 0.0613191   0.572288
 0.0649437    0.58212
 0.0687803   0.591974
 0.0728413   0.601875
 0.0771397   0.611846
 0.0816895   0.621906
 0.0865054   0.632086
 0.0916029   0.642409
 0.0969985   0.652895
   0.10271   0.663558
  0.108755   0.674406
  0.115153   0.685451
  0.121926   0.696709
  0.129095   0.708201
  0.136683   0.719931
  0.144715   0.731914
  0.153216   0.744167
  0.162214   0.756719
  0.171739   0.769604
  0.181821    0.78283
  0.192492   0.796411
  0.203788   0.810343
  0.215744   0.824682
  0.228399   0.839457
  0.241794   0.854699
  0.255972   0.870436
   0.27098   0.886813
  0.286865   0.903681
  0.304824   0.922526
  0.324407   0.942726
  0.343989   0.962068
  0.363571   0.980763
  0.383154   0.998875
  0.402736    1.01651
  0.422319    1.03369
  0.441901    1.05035
  0.461484    1.06665
  0.481066    1.08245
  0.500648    1.09784
  0.520231    1.11265
  0.539813    1.12696
  0.559396    1.14083
  0.578978    1.15428
   0.59856    1.16727
  0.618143    1.17979
  0.637725    1.19182
  0.657308    1.20338
   0.67689    1.21444
  0.696473    1.22514
  0.716055     1.2355
  0.735637    1.24548
   0.75522    1.25502
  0.774802    1.26412
  0.794385    1.27267
  0.813967    1.28061
  0.833549    1.28797
  0.853132    1.29463
  0.872714    1.30058
  0.892297    1.30581
  0.911879     1.3103
  0.931462    1.31395
  0.951044    1.31666
  0.970626    1.31844
  0.990209    1.31936
   1.00979    1.31946
   1.02937    1.31864
   1.04896    1.31692
   1.06854    1.31441
   1.08812    1.31111
    1.1077    1.30699
   1.12729    1.30212
   1.14687    1.29653
   1.16645    1.29024
   1.18603    1.28325
   1.20562    1.27554
    1.2252    1.26721
   1.24478    1.25836
   1.26436    1.24899
   1.28395    1.23913
   1.30353    1.22877
   1.32311    1.21786
   1.34269    1.20637
   1.36228    1.19442
   1.38186    1.18206
   1.40144    1.16925
   1.42102    1.15602
   1.44061    1.14237
   1.46019    1.12833
   1.47977    1.11388
   1.49935    1.09891
   1.51894    1.08354
   1.53852    1.06774
    1.5581    1.05144
   1.57768    1.03472
   1.59727    1.01748
   1.61685   0.999578
   1.63643   0.981157
   1.65601    0.96197
    1.6756   0.942261
   1.69518   0.921879
   1.71314   0.902741
   1.72902   0.885477
   1.74403   0.868651
   1.75821     0.8524
    1.7716   0.836629
   1.78426   0.821346
   1.79621   0.806494
   1.80751   0.792084
   1.81818   0.778082
   1.82826    0.76448
   1.83779   0.751244
   1.84679   0.738338
   1.85529   0.725731
   1.86332   0.713418
   1.87091   0.701394
   1.87808   0.689653
   1.88485   0.678189
   1.89125   0.666992
   1.89729   0.656042
     1.903   0.645318
    1.9084   0.634803
    1.9135   0.624474
   1.91831   0.614306
   1.92286   0.604274
   1.92716   0.594351
   1.93122   0.584511
   1.93506   0.574729
   1.93868   0.564979
   1.94211   0.555236
   1.94534   0.545474
    1.9484   0.535666
   1.95129   0.525783
   1.95401   0.515801
   1.95659   0.505692
   1.95903   0.495433
   1.96133   0.485001
    1.9635   0.474374
   1.96555   0.463534
   1.96749   0.452464
   1.96933   0.441151
   1.97106   0.429583
   1.97269   0.417752
   1.97424   0.405652
    1.9757   0.393278
   1.97708   0.380629
   1.97838   0.367708
   1.97961    0.35452
   1.98077   0.341075
   1.98187   0.327388
   1.98291   0.313478
   1.98389   0.299371
   1.98482   0.285097
   1.98569   0.270695
   1.98652   0.256211
    1.9873   0.241698
   1.98804   0.227214
   1.98874   0.212827
    1.9894   0.198606
   1.99002   0.184625
   1.99061   0.170959
   1.99116   0.157681
   1.99169    0.14486
   1.99218   0.132559
   1.99265   0.120834
    1.9931   0.109546
   1.99355  0.0984345
   1.99399   0.087452
   1.99444  0.0766905
   1.99488   0.066251
   1.99533  0.0562402
   1.99577  0.0467672
   1.99622    0.03794
   1.99666  0.0298607
   1.99711  0.0226216
   1.99755  0.0163014
     1.998  0.0109628
   1.99844  0.0066524
   1.99889 0.00340079
   1.99933 0.00122587
   1.99978 0.000136387
         2          0
