         0          0
 0.0002225 2.90547e-10
 0.0006675 2.61031e-08
 0.0011125 1.79824e-07
 0.0015575 6.28974e-07
 0.0020025 1.56251e-06
 0.0024475 3.16987e-06
 0.0028925 5.63008e-06
 0.0033375 9.10245e-06
 0.0037825 1.37208e-05
 0.0042275 1.95913e-05
 0.0046725 2.67928e-05
 0.0051175 3.53785e-05
 0.0055625 4.53783e-05
 0.0060075 5.68016e-05
 0.0064525 6.96404e-05
 0.0068975 8.38723e-05
 0.0073476 9.96548e-05
0.00781612 0.000117528
0.00831203 0.000137991
0.00883694 0.000161301
0.00939255 0.000187715
0.00998065 0.000217488
 0.0106031 0.00025087
  0.011262 0.000288097
 0.0119594 0.000329384
 0.0126977 0.00037492
  0.013479 0.000424856
 0.0143061 0.000479301
 0.0151815 0.000538311
 0.0161082 0.000601885
  0.017089 0.000669955
 0.0181271 0.000742384
  0.019226 0.000818965
 0.0203891 0.000899415
 0.0216203 0.000983381
 0.0229234 0.00107044
 0.0243028 0.00116012
 0.0257628 0.00125188
 0.0273082 0.00134513
  0.028944 0.00143924
 0.0306754 0.00153358
 0.0325081 0.00162745
 0.0344479 0.00172017
 0.0365012 0.00181107
 0.0386746 0.00189949
  0.040975 0.00198481
   0.04341 0.00206645
 0.0459873 0.00214393
 0.0487154 0.00221682
  0.051603 0.00228483
 0.0546595  0.0023478
 0.0578947 0.00240562
 0.0613191 0.00245826
 0.0649437 0.00250578
 0.0687803 0.00254833
 0.0728413 0.00258609
 0.0771397 0.00261931
 0.0816895 0.00264824
 0.0865054 0.00267314
 0.0916029  0.0026943
 0.0969985 0.00271198
   0.10271 0.00272632
  0.108755 0.00273736
  0.115153 0.00274514
  0.121926 0.00274967
  0.129095 0.00275122
  0.136683 0.00274971
  0.144715 0.00274551
  0.153216 0.00273867
  0.162214 0.00272947
  0.171739 0.00271726
  0.181821 0.00270225
  0.192492 0.00268375
  0.203788 0.00266228
  0.215744 0.00263748
  0.228399 0.00261002
  0.241794 0.00257901
  0.255972 0.00254518
   0.27098 0.00250786
  0.286865 0.00246871
  0.304824 0.00242426
  0.324407 0.00237303
  0.343989 0.00232078
  0.363571 0.00226784
  0.383154 0.00221481
  0.402736 0.00216079
  0.422319  0.0021069
  0.441901 0.00205314
  0.461484 0.00199895
  0.481066 0.00194487
  0.500648 0.00189161
  0.520231  0.0018381
  0.539813  0.0017844
  0.559396 0.00173056
  0.578978  0.0016761
   0.59856 0.00162159
  0.618143 0.00156671
  0.637725 0.00151267
  0.657308  0.0014591
   0.67689 0.00140742
  0.696473 0.00135773
  0.716055  0.0013097
  0.735637 0.00126359
   0.75522 0.00121922
  0.774802 0.00117718
  0.794385 0.00113695
  0.813967 0.00109859
  0.833549 0.00106238
  0.853132  0.0010297
  0.872714 0.00100016
  0.892297 0.000973916
  0.911879 0.00095155
  0.931462 0.000933103
  0.951044 0.000918346
  0.970626 0.000907477
  0.990209 0.00090065
   1.00979 0.000898424
   1.02937 0.000900646
   1.04896 0.000907089
   1.06854 0.000917061
   1.08812 0.000930674
    1.1077 0.000948102
   1.12729 0.000969477
   1.14687 0.000994109
   1.16645 0.00102214
   1.18603 0.00105336
   1.20562 0.00108826
    1.2252 0.00112733
   1.24478 0.00116974
   1.26436 0.00121459
   1.28395 0.00126106
   1.30353 0.00130967
   1.32311 0.00135891
   1.34269 0.00141034
   1.36228  0.0014631
   1.38186 0.00151647
   1.40144 0.00157122
   1.42102 0.00162766
   1.44061 0.00168516
   1.46019 0.00174362
   1.47977 0.00180236
   1.49935 0.00186019
   1.51894 0.00191734
   1.53852 0.00197287
    1.5581 0.00202817
   1.57768 0.00208256
   1.59727 0.00213713
   1.61685 0.00219193
   1.63643 0.00224649
   1.65601 0.00230135
    1.6756 0.00235597
   1.69518 0.00240844
   1.71314 0.00245586
   1.72902 0.00249861
   1.74403  0.0025395
   1.75821 0.00257634
    1.7716 0.00260967
   1.78426 0.00263911
   1.79621  0.0026653
   1.80751 0.00268807
   1.81818 0.00270761
   1.82826 0.00272401
   1.83779 0.00273719
   1.84679  0.0027474
   1.85529 0.00275464
   1.86332 0.00275884
   1.87091 0.00275988
   1.87808 0.00275783
   1.88485 0.00275271
   1.89125 0.00274463
   1.89729 0.00273358
     1.903 0.00271932
    1.9084 0.00270158
    1.9135 0.00268024
   1.91831 0.00265512
   1.92286  0.0026259
   1.92716 0.00259228
   1.93122   0.002554
   1.93506 0.00251087
   1.93868 0.00246266
   1.94211 0.00240922
   1.94534 0.00235047
    1.9484 0.00228647
   1.95129 0.00221737
   1.95401 0.00214343
   1.95659 0.00206498
   1.95903 0.00198244
   1.96133 0.00189631
    1.9635 0.00180715
   1.96555 0.00171559
   1.96749 0.00162228
   1.96933 0.00152791
   1.97106 0.00143318
   1.97269 0.00133877
   1.97424 0.00124534
    1.9757 0.00115351
   1.97708 0.00106386
   1.97838 0.000976913
   1.97961 0.000893142
   1.98077 0.000812951
   1.98187 0.000736679
   1.98291 0.000664593
   1.98389 0.000596889
   1.98482 0.000533693
   1.98569 0.000475065
   1.98652 0.000420998
    1.9873 0.000371431
   1.98804 0.000326249
   1.98874 0.000285298
    1.9894 0.000248387
   1.99002 0.000215299
   1.99061 0.000185795
   1.99116 0.000159627
   1.99169 0.00013654
   1.99218 0.000116276
   1.99265 9.85803e-05
    1.9931 8.29572e-05
   1.99355 6.88712e-05
   1.99399 5.61665e-05
   1.99444 4.48644e-05
   1.99488 3.49726e-05
   1.99533 2.64813e-05
   1.99577 1.93604e-05
   1.99622 1.35568e-05
   1.99666 8.99202e-06
   1.99711 5.56071e-06
   1.99755 3.13017e-06
     1.998 1.5426e-06
   1.99844 6.20795e-07
   1.99889 1.77427e-07
   1.99933 2.57419e-08
   1.99978 2.85765e-10
         2          0
