         0          0
 0.0002225 -1.69396e-08
 0.0006675 -6.75923e-07
 0.0011125 -3.26098e-06
 0.0015575 -9.17731e-06
 0.0020025 -1.97264e-05
 0.0024475 -3.6056e-05
 0.0028925 -5.90815e-05
 0.0033375 -8.94015e-05
 0.0037825 -0.00012725
 0.0042275 -0.00017249
 0.0046725 -0.000224654
 0.0051175 -0.000282996
 0.0055625 -0.000346575
 0.0060075 -0.000414334
 0.0064525 -0.00048517
 0.0068975 -0.000558006
 0.0073476 -0.000632702
0.00781612 -0.00071058
0.00831203 -0.000792154
0.00883694 -0.000876575
0.00939255 -0.000962899
0.00998065 -0.00105013
 0.0106031 -0.00113725
  0.011262 -0.00122329
 0.0119594 -0.00130734
 0.0126977 -0.00138861
  0.013479 -0.00146644
 0.0143061 -0.00154031
 0.0151815 -0.00160984
 0.0161082 -0.0016748
  0.017089 -0.00173508
 0.0181271 -0.00179066
  0.019226 -0.00184163
 0.0203891 -0.00188812
 0.0216203 -0.00193032
 0.0229234 -0.00196845
 0.0243028 -0.00200274
 0.0257628 -0.00203343
 0.0273082 -0.00206076
  0.028944 -0.00208493
 0.0306754 -0.00210617
 0.0325081 -0.00212466
 0.0344479 -0.00214059
 0.0365012 -0.00215417
 0.0386746 -0.00216554
  0.040975 -0.00217487
   0.04341 -0.00218229
 0.0459873 -0.00218792
 0.0487154 -0.00219188
  0.051603 -0.00219437
 0.0546595 -0.00219545
 0.0578947 -0.00219514
 0.0613191 -0.00219358
 0.0649437 -0.00219084
 0.0687803 -0.00218702
 0.0728413 -0.00218213
 0.0771397 -0.00217625
 0.0816895 -0.00216925
 0.0865054 -0.0021612
 0.0916029 -0.00215231
 0.0969985 -0.00214237
   0.10271 -0.00213133
  0.108755 -0.0021194
  0.115153 -0.00210593
  0.121926 -0.00209213
  0.129095 -0.00207681
  0.136683 -0.00206031
  0.144715 -0.00204265
  0.153216 -0.0020242
  0.162214 -0.00200372
  0.171739 -0.00198241
  0.181821 -0.00195856
  0.192492 -0.0019357
  0.203788 -0.00190696
  0.215744 -0.00188456
  0.228399 -0.0018474
  0.241794 -0.00182829
  0.255972 -0.0017779
   0.27098 -0.00176832
  0.286865 -0.00170549
  0.304824 -0.00167255
  0.324407 -0.00164831
  0.343989 -0.00157044
  0.363571 -0.00154509
  0.383154 -0.0014798
  0.402736 -0.00144482
  0.422319 -0.00138931
  0.441901 -0.00134646
  0.461484 -0.00129739
  0.481066 -0.00124969
  0.500648 -0.0012055
  0.520231 -0.0011546
  0.539813 -0.0011107
  0.559396 -0.00106184
  0.578978 -0.00101618
   0.59856 -0.000968396
  0.618143 -0.000922396
  0.637725 -0.000874538
  0.657308 -0.000828316
   0.67689 -0.000781799
  0.696473 -0.000735155
  0.716055 -0.000688544
  0.735637 -0.000641558
   0.75522 -0.000595009
  0.774802 -0.000548679
  0.794385 -0.000501772
  0.813967 -0.000455027
  0.833549 -0.000408118
  0.853132 -0.000363632
  0.872714 -0.000315025
  0.892297 -0.000269617
  0.911879 -0.000223113
  0.931462 -0.000176771
  0.951044 -0.000130532
  0.970626 -8.37376e-05
  0.990209 -3.72548e-05
   1.00979  8.636e-06
   1.02937 5.53898e-05
   1.04896 0.000102101
   1.06854 0.000149341
   1.08812 0.000196484
    1.1077 0.000243048
   1.12729 0.000290222
   1.14687 0.000337606
   1.16645 0.000384479
   1.18603 0.00043177
   1.20562 0.000479455
    1.2252 0.00052448
   1.24478 0.00057356
   1.26436 0.00062075
   1.28395 0.000668925
   1.30353 0.000715759
   1.32311 0.000764238
   1.34269 0.000810967
   1.36228 0.00085837
   1.38186 0.000908741
   1.40144 0.000952928
   1.42102 0.00100275
   1.44061 0.00104959
   1.46019 0.00109727
   1.47977 0.00114684
   1.49935 0.00119297
   1.51894 0.00124411
   1.53852 0.00128845
    1.5581 0.00134208
   1.57768 0.00138271
   1.59727 0.00144145
   1.61685 0.00147395
   1.63643 0.00154259
   1.65601 0.00156294
    1.6756 0.00164914
   1.69518 0.00166764
   1.71314 0.00170299
   1.72902 0.00176299
   1.74403 0.00177512
   1.75821 0.00182194
    1.7716 0.00184417
   1.78426 0.00187832
   1.79621 0.00190124
   1.80751 0.00192962
   1.81818 0.00195176
   1.82826 0.00197531
   1.83779  0.0019958
   1.84679 0.00201519
   1.85529 0.00203357
   1.86332 0.00205063
   1.87091  0.0020664
   1.87808 0.00208132
   1.88485 0.00209499
   1.89125 0.00210735
   1.89729 0.00211894
     1.903 0.00212965
    1.9084 0.00213946
    1.9135 0.00214792
   1.91831 0.00215552
   1.92286 0.00216228
   1.92716   0.002168
   1.93122 0.00217261
   1.93506 0.00217611
   1.93868 0.00217858
   1.94211 0.00217999
   1.94534 0.00218017
    1.9484 0.00217901
   1.95129 0.00217643
   1.95401  0.0021723
   1.95659 0.00216654
   1.95903 0.00215904
   1.96133 0.00214964
    1.9635 0.00213818
   1.96555 0.00212451
   1.96749 0.00210847
   1.96933  0.0020899
   1.97106  0.0020686
   1.97269 0.00204438
   1.97424 0.00201703
    1.9757 0.00198632
   1.97708 0.00195201
   1.97838 0.00191389
   1.97961 0.00187172
   1.98077 0.00182529
   1.98187 0.00177442
   1.98291 0.00171898
   1.98389 0.00165889
   1.98482 0.00159416
   1.98569 0.00152492
   1.98652  0.0014514
    1.9873 0.00137399
   1.98804 0.00129321
   1.98874 0.00120972
    1.9894 0.00112432
   1.99002  0.0010379
   1.99061 0.000951435
   1.99116 0.000865914
   1.99169 0.000782326
   1.99218 0.000701602
   1.99265 0.000624575
    1.9931 0.000550729
   1.99355 0.000478754
   1.99399 0.000408783
   1.99444 0.00034188
   1.99488 0.000279125
   1.99533 0.000221557
   1.99577 0.000170098
   1.99622 0.000125478
   1.99666 8.81553e-05
   1.99711 5.82586e-05
   1.99755 3.55554e-05
     1.998 1.9454e-05
   1.99844 9.05167e-06
   1.99889 3.21685e-06
   1.99933 6.66931e-07
   1.99978 1.67261e-08
         2          0
