         0          0
 0.0002225 -4.96657e-08
 0.0006675 -4.49611e-07
 0.0011125 -1.25446e-06
 0.0015575 -2.46633e-06
 0.0020025 -4.08185e-06
 0.0024475 -6.09022e-06
 0.0028925 -8.47219e-06
 0.0033375 -1.12002e-05
 0.0037825 -1.42393e-05
 0.0042275 -1.75488e-05
 0.0046725 -2.10846e-05
 0.0051175 -2.48018e-05
 0.0055625 -2.86565e-05
 0.0060075 -3.26087e-05
 0.0064525 -3.66229e-05
 0.0068975 -4.06692e-05
 0.0073476 -4.47707e-05
0.00781612 -4.90291e-05
0.00831203 -5.35031e-05
0.00883694 -5.8185e-05
0.00939255 -6.30675e-05
0.00998065 -6.8145e-05
 0.0106031 -7.34151e-05
  0.011262 -7.88815e-05
 0.0119594 -8.45566e-05
 0.0126977 -9.04634e-05
  0.013479 -9.66363e-05
 0.0143061 -0.000103119
 0.0151815 -0.00010996
 0.0161082 -0.000117204
  0.017089 -0.000124883
 0.0181271 -0.000133012
  0.019226 -0.000141586
 0.0203891 -0.000150586
 0.0216203 -0.000159978
 0.0229234 -0.000169724
 0.0243028 -0.000179788
 0.0257628 -0.00019013
 0.0273082 -0.000200692
  0.028944 -0.00021136
 0.0306754 -0.000221947
 0.0325081 -0.000232211
 0.0344479 -0.000241907
 0.0365012 -0.000250806
 0.0386746 -0.000258713
  0.040975 -0.000265519
   0.04341 -0.000271199
 0.0459873 -0.000275588
 0.0487154 -0.000278478
  0.051603 -0.000280038
 0.0546595 -0.000280582
 0.0578947 -0.000280017
 0.0613191 -0.000277936
 0.0649437 -0.000274378
 0.0687803 -0.000270349
 0.0728413 -0.000267033
 0.0771397 -0.000266058
 0.0816895 -0.000269024
 0.0865054 -0.000276457
 0.0916029 -0.000288345
 0.0969985 -0.000303869
   0.10271 -0.000320966
  0.108755 -0.000338568
  0.115153 -0.000359351
  0.121926 -0.000385227
  0.129095 -0.00041121
  0.136683 -0.000434833
  0.144715 -0.000456097
  0.153216 -0.000476448
  0.162214 -0.000498249
  0.171739 -0.000515127
  0.181821 -0.000526805
  0.192492 -0.000536689
  0.203788 -0.000567719
  0.215744 -0.00063088
  0.228399 -0.000730357
  0.241794 -0.000829937
  0.255972 -0.000895352
   0.27098 -0.000949761
  0.286865 -0.00100048
  0.304824 -0.00110653
  0.324407 -0.00117327
  0.343989 -0.00120333
  0.363571 -0.00122889
  0.383154 -0.00126725
  0.402736 -0.00133586
  0.422319 -0.00140333
  0.441901 -0.00149986
  0.461484 -0.0016025
  0.481066 -0.00167925
  0.500648 -0.00177057
  0.520231 -0.00190559
  0.539813 -0.00200717
  0.559396 -0.00203158
  0.578978 -0.00202017
   0.59856 -0.00199861
  0.618143 -0.00195756
  0.637725 -0.00190209
  0.657308 -0.00182713
   0.67689 -0.00176238
  0.696473 -0.00170413
  0.716055 -0.00164243
  0.735637 -0.00156265
   0.75522 -0.00149386
  0.774802 -0.00144506
  0.794385 -0.00137845
  0.813967 -0.00126483
  0.833549 -0.00115344
  0.853132 -0.00106589
  0.872714 -0.000961558
  0.892297 -0.000846585
  0.911879 -0.000739812
  0.931462 -0.000634599
  0.951044 -0.000533612
  0.970626 -0.000448413
  0.990209 -0.00039228
   1.00979 -0.000334649
   1.02937 -0.000241514
   1.04896 -0.00014242
   1.06854 -1.49744e-05
   1.08812 0.000130403
    1.1077 0.000284184
   1.12729 0.000442367
   1.14687 0.000566627
   1.16645 0.000652783
   1.18603 0.000726572
   1.20562 0.000833994
    1.2252 0.000943665
   1.24478 0.00101029
   1.26436 0.00104566
   1.28395 0.00104266
   1.30353 0.000997295
   1.32311 0.00090444
   1.34269 0.000763012
   1.36228 0.000617399
   1.38186 0.000502864
   1.40144 0.000417406
   1.42102 0.000336418
   1.44061 0.000295496
   1.46019 0.000282448
   1.47977 0.000274047
   1.49935 0.000235244
   1.51894 0.000165454
   1.53852 0.000102559
    1.5581 -4.63614e-05
   1.57768 -0.000168504
   1.59727 -0.000213245
   1.61685 -0.00019303
   1.63643 -0.000121831
   1.65601 -2.44057e-05
    1.6756 4.76308e-05
   1.69518 6.00022e-05
   1.71314 6.39092e-05
   1.72902 8.02851e-05
   1.74403 0.000110915
   1.75821 0.000152388
    1.7716 0.000176474
   1.78426 0.00018739
   1.79621 0.000194261
   1.80751 0.000204044
   1.81818 0.000225739
   1.82826 0.000244256
   1.83779 0.000258724
   1.84679 0.00026803
   1.85529 0.000265536
   1.86332 0.000255484
   1.87091 0.00024555
   1.87808 0.000239888
   1.88485 0.000240324
   1.89125 0.000244359
   1.89729 0.000252764
     1.903 0.000265791
    1.9084 0.000280655
    1.9135 0.000296581
   1.91831 0.000314539
   1.92286 0.00033339
   1.92716 0.000351142
   1.93122 0.000367225
   1.93506 0.000381315
   1.93868 0.000393177
   1.94211 0.000402718
   1.94534 0.000410159
    1.9484 0.000415886
   1.95129 0.000419808
   1.95401 0.000421748
   1.95659 0.000421681
   1.95903 0.000419544
   1.96133 0.000415361
    1.9635 0.000409415
   1.96555 0.000402084
   1.96749 0.00039364
   1.96933 0.000384259
   1.97106 0.00037412
   1.97269 0.00036345
   1.97424 0.000352473
    1.9757 0.00034134
   1.97708 0.000330105
   1.97838 0.000318753
   1.97961 0.000307253
   1.98077 0.000295583
   1.98187 0.00028373
   1.98291 0.000271685
   1.98389 0.000259446
   1.98482 0.000247024
   1.98569 0.000234444
   1.98652 0.000221746
    1.9873 0.000208986
   1.98804 0.000196229
   1.98874 0.000183551
    1.9894 0.000171032
   1.99002 0.000158755
   1.99061 0.000146798
   1.99116 0.000135233
   1.99169 0.000124122
   1.99218 0.000113515
   1.99265 0.000103451
    1.9931 9.37994e-05
   1.99355 8.43276e-05
   1.99399 7.49839e-05
   1.99444 6.58349e-05
   1.99488 5.69544e-05
   1.99533 4.84229e-05
   1.99577 4.03271e-05
   1.99622 3.27574e-05
   1.99666 2.58048e-05
   1.99711 1.95562e-05
   1.99755 1.40888e-05
     1.998 9.46639e-06
   1.99844 5.7357e-06
   1.99889 2.92628e-06
   1.99933 1.0523e-06
   1.99978 1.16721e-07
         2          0
