         0          0
 0.0002225 8.07029e-06
 0.0006675 6.39359e-05
 0.0011125 0.000160758
 0.0015575 0.00028669
 0.0020025 0.00043226
 0.0024475 0.000589935
 0.0028925 0.000753832
 0.0033375 0.000919483
 0.0037825 0.00108363
 0.0042275 0.00124402
 0.0046725 0.00139919
 0.0051175  0.0015483
 0.0055625 0.00169093
 0.0060075 0.00182699
 0.0064525 0.00195657
 0.0068975 0.00207985
 0.0073476 0.00219854
0.00781612 0.00231608
0.00831203 0.00243397
0.00883694 0.00255187
0.00939255 0.00266945
0.00998065 0.00278633
 0.0106031 0.00290213
  0.011262 0.00301643
 0.0119594  0.0031288
 0.0126977 0.00323879
  0.013479 0.00334593
 0.0143061 0.00344978
 0.0151815 0.00354987
 0.0161082 0.00364577
  0.017089  0.0037371
 0.0181271  0.0038235
  0.019226 0.00390468
 0.0203891 0.00398042
 0.0216203 0.00405054
 0.0229234 0.00411492
 0.0243028 0.00417349
 0.0257628 0.00422619
 0.0273082   0.004273
  0.028944 0.00431392
 0.0306754 0.00434904
 0.0325081 0.00437849
 0.0344479 0.00440253
 0.0365012 0.00442148
 0.0386746 0.00443572
  0.040975 0.00444561
   0.04341 0.00445149
 0.0459873 0.00445368
 0.0487154 0.00445251
  0.051603 0.00444809
 0.0546595 0.00444052
 0.0578947 0.00442994
 0.0613191 0.00441639
 0.0649437 0.00440004
 0.0687803 0.00438106
 0.0728413 0.00435947
 0.0771397 0.00433558
 0.0816895  0.0043099
 0.0865054 0.00428271
 0.0916029  0.0042542
 0.0969985  0.0042243
   0.10271 0.00419297
  0.108755  0.0041604
  0.115153 0.00412693
  0.121926 0.00409203
  0.129095 0.00405543
  0.136683 0.00401744
  0.144715 0.00397805
  0.153216 0.00393835
  0.162214 0.00389897
  0.171739 0.00385979
  0.181821 0.00381983
  0.192492 0.00377776
  0.203788 0.00373324
  0.215744 0.00368482
  0.228399 0.00363247
  0.241794 0.00357827
  0.255972 0.00352172
   0.27098 0.00346259
  0.286865 0.00339723
  0.304824 0.00333306
  0.324407 0.00324275
  0.343989 0.00315738
  0.363571 0.00306619
  0.383154 0.00297319
  0.402736 0.00287872
  0.422319  0.0027888
  0.441901 0.00270473
  0.461484 0.00262288
  0.481066 0.00253943
  0.500648  0.0024535
  0.520231 0.00236567
  0.539813 0.00227613
  0.559396 0.00218595
  0.578978 0.00209551
   0.59856 0.00200793
  0.618143  0.0019204
  0.637725 0.00183176
  0.657308 0.00174829
   0.67689 0.00166712
  0.696473 0.00158568
  0.716055 0.00150663
  0.735637 0.00142953
   0.75522 0.00135726
  0.774802 0.00129078
  0.794385 0.00122887
  0.813967 0.00117089
  0.833549 0.00111793
  0.853132 0.00107007
  0.872714 0.00102713
  0.892297 0.000988515
  0.911879 0.00095481
  0.931462  0.0009271
  0.951044 0.000904802
  0.970626 0.000886765
  0.990209 0.000875257
   1.00979 0.00087112
   1.02937 0.000873414
   1.04896 0.000880889
   1.06854 0.000893939
   1.08812 0.000913642
    1.1077 0.000939602
   1.12729 0.000972518
   1.14687 0.00101136
   1.16645 0.00105514
   1.18603 0.00110337
   1.20562 0.00115633
    1.2252 0.00121334
   1.24478 0.00127406
   1.26436 0.00133951
   1.28395 0.00141065
   1.30353 0.00148743
   1.32311 0.00156978
   1.34269 0.00165777
   1.36228 0.00174654
   1.38186 0.00183157
   1.40144 0.00191595
   1.42102 0.00200392
   1.44061 0.00209699
   1.46019 0.00218949
   1.47977 0.00228657
   1.49935 0.00238674
   1.51894 0.00248166
   1.53852 0.00257522
    1.5581 0.00266344
   1.57768 0.00274998
   1.59727 0.00283881
   1.61685 0.00292484
   1.63643 0.00300788
   1.65601 0.00309023
    1.6756  0.0031732
   1.69518 0.00326382
   1.71314 0.00333961
   1.72902 0.00341512
   1.74403 0.00347999
   1.75821 0.00353752
    1.7716 0.00358944
   1.78426  0.0036404
   1.79621 0.00368954
   1.80751 0.00373518
   1.81818 0.00377777
   1.82826  0.0038191
   1.83779  0.0038606
   1.84679 0.00390186
   1.85529 0.00394191
   1.86332 0.00397944
   1.87091 0.00401587
   1.87808 0.00405151
   1.88485 0.00408621
   1.89125 0.00411943
   1.89729 0.00415085
     1.903 0.00418072
    1.9084 0.00420918
    1.9135 0.00423574
   1.91831 0.00425999
   1.92286 0.00428201
   1.92716 0.00430227
   1.93122 0.00432085
   1.93506 0.00433738
   1.93868 0.00435167
   1.94211 0.00436367
   1.94534 0.00437328
    1.9484 0.00438031
   1.95129 0.00438454
   1.95401 0.00438569
   1.95659 0.00438357
   1.95903 0.00437792
   1.96133  0.0043684
    1.9635 0.00435464
   1.96555 0.00433628
   1.96749 0.00431307
   1.96933 0.00428477
   1.97106 0.00425111
   1.97269 0.00421184
   1.97424  0.0041668
    1.9757 0.00411586
   1.97708 0.00405901
   1.97838 0.00399625
   1.97961 0.00392769
   1.98077 0.00385347
   1.98187 0.00377379
   1.98291 0.00368891
   1.98389 0.00359916
   1.98482 0.00350488
   1.98569 0.00340647
   1.98652 0.00330434
    1.9873 0.00319892
   1.98804 0.00309066
   1.98874    0.00298
    1.9894 0.00286738
   1.99002 0.00275323
   1.99061 0.00263796
   1.99116 0.00252197
   1.99169 0.00240561
   1.99218 0.00228924
   1.99265 0.00217318
    1.9931 0.00205596
   1.99355 0.00193418
   1.99399 0.00180617
   1.99444 0.00167172
   1.99488 0.00153075
   1.99533 0.00138336
   1.99577 0.00122997
   1.99622 0.00107141
   1.99666 0.000909113
   1.99711 0.000745326
   1.99755 0.00058327
     1.998 0.000427365
   1.99844 0.000283433
   1.99889 0.000158923
   1.99933 6.32008e-05
   1.99978 7.97637e-06
         2          0
