         0          0
 0.0002225  0.0108087
 0.0006675  0.0324146
 0.0011125  0.0539974
 0.0015575  0.0755335
 0.0020025  0.0969876
 0.0024475   0.118313
 0.0028925   0.139454
 0.0033375   0.160349
 0.0037825    0.18093
 0.0042275   0.201131
 0.0046725   0.220888
 0.0051175   0.240143
 0.0055625   0.258845
 0.0060075   0.276952
 0.0064525   0.294432
 0.0068975   0.311262
 0.0073476   0.327615
0.00781612   0.343917
0.00831203   0.360372
0.00883694   0.376906
0.00939255   0.393445
0.00998065   0.409917
 0.0106031   0.426251
  0.011262   0.442382
 0.0119594   0.458251
 0.0126977   0.473807
  0.013479   0.489007
 0.0143061   0.503817
 0.0151815   0.518209
 0.0161082   0.532167
  0.017089   0.545678
 0.0181271   0.558738
  0.019226   0.571346
 0.0203891   0.583508
 0.0216203   0.595233
 0.0229234    0.60653
 0.0243028   0.617414
 0.0257628   0.627899
 0.0273082   0.638001
  0.028944   0.647737
 0.0306754   0.657124
 0.0325081   0.666182
 0.0344479    0.67493
 0.0365012   0.683387
 0.0386746   0.691574
  0.040975   0.699509
   0.04341   0.707215
 0.0459873   0.714711
 0.0487154    0.72202
  0.051603   0.729164
 0.0546595   0.736165
 0.0578947   0.743048
 0.0613191   0.749835
 0.0649437   0.756546
 0.0687803   0.763198
 0.0728413   0.769811
 0.0771397     0.7764
 0.0816895   0.782979
 0.0865054   0.789569
 0.0916029   0.796186
 0.0969985   0.802843
   0.10271   0.809548
  0.108755   0.816305
  0.115153    0.82312
  0.121926   0.830004
  0.129095   0.836967
  0.136683   0.844012
  0.144715   0.851145
  0.153216   0.858375
  0.162214   0.865716
  0.171739   0.873185
  0.181821   0.880784
  0.192492   0.888517
  0.203788   0.896381
  0.215744   0.904405
  0.228399   0.912601
  0.241794   0.920981
  0.255972   0.929555
   0.27098   0.938395
  0.286865   0.947414
  0.304824   0.957389
  0.324407   0.967972
  0.343989   0.978002
  0.363571   0.987609
  0.383154   0.996831
  0.402736    1.00572
  0.422319    1.01432
  0.441901    1.02258
  0.461484     1.0306
  0.481066    1.03832
  0.500648    1.04579
  0.520231    1.05292
  0.539813    1.05976
  0.559396    1.06635
  0.578978    1.07271
   0.59856    1.07881
  0.618143    1.08467
  0.637725    1.09027
  0.657308    1.09562
   0.67689    1.10072
  0.696473    1.10564
  0.716055    1.11038
  0.735637    1.11493
   0.75522    1.11926
  0.774802    1.12337
  0.794385    1.12723
  0.813967     1.1308
  0.833549     1.1341
  0.853132    1.13708
  0.872714    1.13973
  0.892297    1.14206
  0.911879    1.14405
  0.931462    1.14567
  0.951044    1.14687
  0.970626    1.14765
  0.990209    1.14806
   1.00979     1.1481
   1.02937    1.14773
   1.04896    1.14696
   1.06854    1.14585
   1.08812    1.14438
    1.1077    1.14254
   1.12729    1.14037
   1.14687    1.13787
   1.16645    1.13505
   1.18603    1.13192
   1.20562    1.12846
    1.2252    1.12471
   1.24478    1.12071
   1.26436    1.11646
   1.28395    1.11198
   1.30353    1.10725
   1.32311    1.10224
   1.34269    1.09695
   1.36228    1.09142
   1.38186    1.08567
   1.40144    1.07968
   1.42102    1.07346
   1.44061    1.06701
   1.46019    1.06033
   1.47977    1.05342
   1.49935    1.04621
   1.51894    1.03875
   1.53852    1.03104
    1.5581    1.02302
   1.57768    1.01473
   1.59727    1.00612
   1.61685   0.997096
   1.63643   0.987727
   1.65601   0.977876
    1.6756   0.967656
   1.69518   0.956981
   1.71314    0.94686
   1.72902   0.937635
   1.74403    0.92856
   1.75821   0.919714
    1.7716   0.911047
   1.78426   0.902568
   1.79621   0.894248
   1.80751   0.886102
   1.81818   0.878113
   1.82826   0.870281
   1.83779    0.86259
   1.84679   0.855022
   1.85529   0.847562
   1.86332   0.840208
   1.87091   0.832961
   1.87808   0.825818
   1.88485   0.818778
   1.89125   0.811837
   1.89729   0.804984
     1.903   0.798207
    1.9084   0.791497
    1.9135    0.78484
   1.91831   0.778219
   1.92286   0.771619
   1.92716   0.765023
   1.93122   0.758412
   1.93506   0.751768
   1.93868   0.745071
   1.94211   0.738303
   1.94534   0.731444
    1.9484   0.724471
   1.95129   0.717362
   1.95401   0.710094
   1.95659   0.702645
   1.95903   0.694991
   1.96133   0.687111
    1.9635   0.678983
   1.96555   0.670584
   1.96749   0.661894
   1.96933   0.652893
   1.97106   0.643562
   1.97269   0.633884
   1.97424    0.62384
    1.9757   0.613413
   1.97708   0.602587
   1.97838   0.591347
   1.97961    0.57968
   1.98077   0.567575
   1.98187   0.555024
   1.98291   0.542024
   1.98389   0.528573
   1.98482   0.514677
   1.98569   0.500349
   1.98652   0.485606
    1.9873   0.470475
   1.98804   0.454992
   1.98874   0.439201
    1.9894   0.423151
   1.99002   0.406903
   1.99061   0.390522
   1.99116   0.374077
   1.99169   0.357641
   1.99218   0.341287
   1.99265   0.325088
    1.9931   0.308843
   1.99355   0.292126
   1.99399   0.274768
   1.99444   0.256791
   1.99488   0.238226
   1.99533   0.219116
   1.99577    0.19951
   1.99622   0.179466
   1.99666   0.159047
   1.99711    0.13832
   1.99755   0.117349
     1.998  0.0961963
   1.99844  0.0749169
   1.99889  0.0535564
   1.99933  0.0321499
   1.99978  0.0107205
         2          0
