         0          0
 0.0002225 -4.50422e-06
 0.0006675 -1.35108e-05
 0.0011125 -2.25061e-05
 0.0015575 -3.1473e-05
 0.0020025 -4.03883e-05
 0.0024475 -4.92245e-05
 0.0028925 -5.79518e-05
 0.0033375 -6.65405e-05
 0.0037825 -7.49624e-05
 0.0042275 -8.31926e-05
 0.0046725 -9.12104e-05
 0.0051175 -9.89997e-05
 0.0055625 -0.000106549
 0.0060075 -0.000113853
 0.0064525 -0.000120907
 0.0068975 -0.000127713
 0.0073476 -0.00013435
0.00781612 -0.000141001
0.00831203 -0.000147762
0.00883694 -0.00015462
0.00939255 -0.000161565
0.00998065 -0.000168589
 0.0106031 -0.000175696
  0.011262 -0.000182896
 0.0119594 -0.000190219
 0.0126977 -0.000197709
  0.013479 -0.000205426
 0.0143061 -0.00021344
 0.0151815 -0.00022182
 0.0161082 -0.000230625
  0.017089 -0.00023989
 0.0181271 -0.000249625
  0.019226 -0.000259811
 0.0203891 -0.000270412
 0.0216203 -0.000281379
 0.0229234 -0.000292649
 0.0243028 -0.000304139
 0.0257628 -0.000315734
 0.0273082 -0.00032728
  0.028944 -0.000338554
 0.0306754 -0.000349261
 0.0325081 -0.000359063
 0.0344479 -0.000367592
 0.0365012 -0.000374533
 0.0386746 -0.000379778
  0.040975 -0.000383426
   0.04341 -0.000385593
 0.0459873 -0.000386173
 0.0487154 -0.000384992
  0.051603 -0.000382282
 0.0546595 -0.000378422
 0.0578947 -0.000373302
 0.0613191 -0.000366339
 0.0649437 -0.000357838
 0.0687803 -0.000349403
 0.0728413 -0.000342727
 0.0771397 -0.000339992
 0.0816895 -0.000343176
 0.0865054 -0.00035244
 0.0916029 -0.000367045
 0.0969985 -0.000385093
   0.10271 -0.000403408
  0.108755 -0.000420356
  0.115153 -0.000440102
  0.121926 -0.000465573
  0.129095 -0.000490653
  0.136683 -0.000512764
  0.144715 -0.000532041
  0.153216 -0.000550311
  0.162214 -0.000569408
  0.171739 -0.000580415
  0.181821 -0.000583175
  0.192492 -0.000584156
  0.203788 -0.000609867
  0.215744 -0.000670769
  0.228399 -0.000768587
  0.241794 -0.000861838
  0.255972 -0.00091747
   0.27098 -0.000964117
  0.286865 -0.00100786
  0.304824 -0.00111242
  0.324407 -0.00117444
  0.343989 -0.00120087
  0.363571 -0.00122101
  0.383154 -0.00125053
  0.402736 -0.00131187
  0.422319 -0.00137158
  0.441901 -0.00145578
  0.461484 -0.00154636
  0.481066 -0.00160964
  0.500648 -0.0016874
  0.520231 -0.0018077
  0.539813 -0.00189269
  0.559396 -0.00190276
  0.578978 -0.00187706
   0.59856 -0.00184568
  0.618143 -0.00179627
  0.637725 -0.00173589
  0.657308 -0.00165917
   0.67689 -0.0015913
  0.696473 -0.00153175
  0.716055 -0.0014718
  0.735637 -0.00139692
   0.75522 -0.00133264
  0.774802 -0.00128738
  0.794385 -0.00122683
  0.813967 -0.00112406
  0.833549 -0.00102485
  0.853132 -0.000948245
  0.872714 -0.000856929
  0.892297 -0.00075636
  0.911879 -0.000663558
  0.931462 -0.000572053
  0.951044 -0.000484393
  0.970626 -0.000409881
  0.990209 -0.000359344
   1.00979 -0.000307579
   1.02937 -0.00022541
   1.04896 -0.000138757
   1.06854 -2.76639e-05
   1.08812 9.92213e-05
    1.1077 0.000233597
   1.12729 0.000372767
   1.14687 0.000483125
   1.16645 0.000560474
   1.18603 0.000627173
   1.20562 0.00072551
    1.2252 0.000828513
   1.24478 0.00089479
   1.26436 0.000933345
   1.28395 0.000936739
   1.30353 0.000900483
   1.32311 0.000818235
   1.34269 0.000693599
   1.36228 0.000564436
   1.38186 0.000461884
   1.40144 0.000384064
   1.42102 0.000311355
   1.44061 0.000277793
   1.46019 0.000271127
   1.47977 0.000268547
   1.49935 0.000237296
   1.51894 0.000176306
   1.53852 0.000123352
    1.5581 -1.62987e-05
   1.57768 -0.000136718
   1.59727 -0.000183649
   1.61685 -0.00016881
   1.63643 -0.0001005
   1.65601 -4.83008e-06
    1.6756 7.18108e-05
   1.69518 8.31248e-05
   1.71314 8.32353e-05
   1.72902 9.8611e-05
   1.74403 0.000130083
   1.75821 0.000174203
    1.7716 0.000201113
   1.78426 0.000213396
   1.79621 0.000221405
   1.80751 0.000231819
   1.81818 0.000253185
   1.82826 0.000271293
   1.83779 0.00028635
   1.84679 0.000297668
   1.85529 0.000295508
   1.86332 0.000283425
   1.87091 0.000271233
   1.87808 0.00026484
   1.88485 0.000266537
   1.89125 0.00027356
   1.89729 0.000286598
     1.903 0.000305778
    1.9084 0.000327332
    1.9135 0.000349878
   1.91831 0.000374891
   1.92286 0.00040138
   1.92716 0.000426804
   1.93122 0.000450598
   1.93506 0.000472785
   1.93868 0.000492961
   1.94211 0.000510765
   1.94534 0.000526177
    1.9484 0.000539546
   1.95129 0.000550727
   1.95401 0.000559358
   1.95659 0.000565345
   1.95903 0.000568632
   1.96133 0.000569304
    1.9635 0.000567764
   1.96555 0.000564465
   1.96749 0.000559711
   1.96933 0.000553706
   1.97106 0.000546625
   1.97269 0.000538667
   1.97424 0.000530067
    1.9757 0.000521053
   1.97708 0.000511773
   1.97838 0.000502275
   1.97961 0.000492543
   1.98077 0.000482541
   1.98187 0.000472215
   1.98291 0.000461501
   1.98389 0.000450335
   1.98482 0.000438676
   1.98569 0.000426509
   1.98652 0.000413846
    1.9873 0.000400724
   1.98804 0.000387204
   1.98874 0.000373362
    1.9894 0.000359284
   1.99002 0.000345063
   1.99061 0.000330788
   1.99116 0.000316541
   1.99169 0.000302398
   1.99218 0.000288423
   1.99265 0.00027467
    1.9931 0.000260957
   1.99355 0.000246915
   1.99399 0.000232388
   1.99444 0.000217378
   1.99488 0.000201891
   1.99533 0.00018594
   1.99577 0.000169543
   1.99622 0.00015273
   1.99666 0.000135539
   1.99711 0.00011802
   1.99755 0.000100228
     1.998 8.22217e-05
   1.99844 6.40623e-05
   1.99889 4.58047e-05
   1.99933 2.74949e-05
   1.99978 9.16582e-06
         2          0
