         0          0
 0.0002225 -1.73159e-08
 0.0006675 -6.7794e-07
 0.0011125 -3.26199e-06
 0.0015575 -9.16746e-06
 0.0020025 -1.9692e-05
 0.0024475 -3.59815e-05
 0.0028925 -5.89495e-05
 0.0033375 -8.91937e-05
 0.0037825 -0.000126948
 0.0042275 -0.000172077
 0.0046725 -0.000224113
 0.0051175 -0.000282313
 0.0055625 -0.000345737
 0.0060075 -0.000413329
 0.0064525 -0.000483993
 0.0068975 -0.000556654
 0.0073476 -0.00063117
0.00781612 -0.000708851
0.00831203 -0.000790207
0.00883694 -0.000874393
0.00939255 -0.000960466
0.00998065 -0.00104743
 0.0106031 -0.00113427
  0.011262 -0.00122001
 0.0119594 -0.00130376
 0.0126977 -0.00138472
  0.013479 -0.00146222
 0.0143061 -0.00153575
 0.0151815 -0.00160494
 0.0161082 -0.00166955
  0.017089 -0.00172949
 0.0181271 -0.00178473
  0.019226 -0.00183536
 0.0203891 -0.00188153
 0.0216203 -0.00192343
 0.0229234 -0.00196127
 0.0243028 -0.00199529
 0.0257628 -0.00202573
 0.0273082 -0.00205281
  0.028944 -0.00207675
 0.0306754 -0.00209775
 0.0325081 -0.00211602
 0.0344479 -0.00213173
 0.0365012 -0.00214506
 0.0386746 -0.00215618
  0.040975 -0.00216524
   0.04341 -0.00217235
 0.0459873 -0.00217764
 0.0487154 -0.00218122
  0.051603 -0.00218317
 0.0546595 -0.00218359
 0.0578947 -0.00218255
 0.0613191 -0.00218018
 0.0649437 -0.00217657
 0.0687803 -0.00217176
 0.0728413 -0.00216583
 0.0771397 -0.00215883
 0.0816895 -0.00215072
 0.0865054 -0.00214152
 0.0916029 -0.00213126
 0.0969985 -0.00211997
   0.10271 -0.00210768
  0.108755 -0.00209436
  0.115153 -0.00208003
  0.121926 -0.00206452
  0.129095 -0.00204788
  0.136683 -0.00203013
  0.144715 -0.00201117
  0.153216 -0.00199102
  0.162214 -0.00196951
  0.171739 -0.00194675
  0.181821 -0.00192276
  0.192492 -0.00189725
  0.203788 -0.00187053
  0.215744 -0.00184192
  0.228399 -0.00181209
  0.241794 -0.00178006
  0.255972 -0.00174677
   0.27098 -0.00171075
  0.286865 -0.00167563
  0.304824 -0.00163617
  0.324407 -0.0015881
  0.343989 -0.00154008
  0.363571 -0.00149297
  0.383154 -0.00144654
  0.402736 -0.00140008
  0.422319 -0.00135426
  0.441901 -0.00130852
  0.461484 -0.00126269
  0.481066 -0.00121703
  0.500648 -0.00117138
  0.520231 -0.00112591
  0.539813 -0.00108059
  0.559396 -0.00103494
  0.578978 -0.000989578
   0.59856 -0.000944347
  0.618143 -0.000899147
  0.637725 -0.000853948
  0.657308 -0.000809115
   0.67689 -0.000763909
  0.696473 -0.000718592
  0.716055 -0.000673133
  0.735637 -0.000627611
   0.75522 -0.000582146
  0.774802 -0.000536607
  0.794385 -0.000491329
  0.813967 -0.000445856
  0.833549 -0.000400392
  0.853132 -0.000354893
  0.872714 -0.000309367
  0.892297 -0.000263998
  0.911879 -0.000218571
  0.931462 -0.00017345
  0.951044 -0.000128207
  0.970626 -8.28866e-05
  0.990209 -3.75093e-05
   1.00979 7.97042e-06
   1.02937 5.33761e-05
   1.04896 9.90976e-05
   1.06854 0.00014491
   1.08812 0.000190929
    1.1077 0.000236942
   1.12729 0.000283052
   1.14687 0.000329004
   1.16645 0.000375149
   1.18603 0.000421249
   1.20562 0.000467684
    1.2252 0.000514282
   1.24478 0.000561166
   1.26436 0.000608039
   1.28395 0.000654984
   1.30353 0.000702155
   1.32311 0.000748799
   1.34269 0.000795634
   1.36228 0.000842634
   1.38186 0.000889367
   1.40144 0.000936147
   1.42102 0.00098317
   1.44061 0.00102984
   1.46019 0.00107715
   1.47977 0.00112381
   1.49935 0.00117074
   1.51894   0.001218
   1.53852 0.00126484
    1.5581 0.00131198
   1.57768  0.0013589
   1.59727 0.00140562
   1.61685 0.00145234
   1.63643 0.00149936
   1.65601  0.0015455
    1.6756  0.0015941
   1.69518 0.00164052
   1.71314 0.00167836
   1.72902 0.00171157
   1.74403 0.00174691
   1.75821 0.00177845
    1.7716 0.00180969
   1.78426 0.00183825
   1.79621 0.00186589
   1.80751 0.00189192
   1.81818 0.00191669
   1.82826 0.00193996
   1.83779 0.00196216
   1.84679 0.00198283
   1.85529  0.0020024
   1.86332 0.00202072
   1.87091 0.00203788
   1.87808 0.00205392
   1.88485 0.00206894
   1.89125 0.00208286
   1.89729  0.0020957
     1.903 0.00210758
    1.9084 0.00211848
    1.9135 0.00212833
   1.91831 0.00213715
   1.92286 0.00214494
   1.92716 0.00215165
   1.93122 0.00215727
   1.93506 0.00216174
   1.93868 0.00216507
   1.94211 0.00216718
   1.94534 0.00216797
    1.9484 0.00216736
   1.95129 0.00216528
   1.95401 0.00216161
   1.95659 0.00215624
   1.95903 0.00214905
   1.96133 0.00213993
    1.9635 0.00212872
   1.96555 0.00211529
   1.96749 0.00209948
   1.96933 0.00208114
   1.97106 0.00206009
   1.97269 0.00203613
   1.97424 0.00200904
    1.9757 0.00197861
   1.97708  0.0019446
   1.97838 0.00190678
   1.97961 0.00186493
   1.98077 0.00181883
   1.98187 0.00176831
   1.98291 0.00171321
   1.98389 0.00165348
   1.98482  0.0015891
   1.98569 0.00152021
   1.98652 0.00144704
    1.9873 0.00136997
   1.98804 0.00128952
   1.98874 0.00120635
    1.9894 0.00112125
   1.99002 0.00103512
   1.99061 0.000948929
   1.99116 0.000863667
   1.99169 0.000780323
   1.99218 0.000699824
   1.99265 0.000623001
    1.9931 0.000549341
   1.99355 0.000477547
   1.99399 0.000407755
   1.99444 0.000341021
   1.99488 0.000278426
   1.99533 0.000221003
   1.99577 0.000169676
   1.99622 0.00012517
   1.99666 8.79425e-05
   1.99711 5.81232e-05
   1.99755 3.54786e-05
     1.998 1.94183e-05
   1.99844 9.04101e-06
   1.99889 3.21747e-06
   1.99933 6.68823e-07
   1.99978 1.70921e-08
         2          0
