         0          0
 0.0002225 2.16188e-05
 0.0006675 0.000193684
 0.0011125 0.00053646
 0.0015575  0.0010476
 0.0020025 0.00172181
 0.0024475  0.0025493
 0.0028925 0.00351489
 0.0033375 0.00459794
 0.0037825 0.00577319
 0.0042275 0.00701215
 0.0046725 0.00828506
 0.0051175 0.00956275
 0.0055625  0.0108184
 0.0060075  0.0120287
 0.0064525  0.0131748
 0.0068975  0.0142425
 0.0073476  0.0152336
0.00781612  0.0161649
0.00831203  0.0170348
0.00883694  0.0178273
0.00939255  0.0185285
0.00998065  0.0191275
 0.0106031  0.0196166
  0.011262  0.0199916
 0.0119594  0.0202518
 0.0126977  0.0203998
  0.013479  0.0204408
 0.0143061  0.0203824
 0.0151815  0.0202335
 0.0161082  0.0200042
  0.017089  0.0197049
 0.0181271   0.019346
  0.019226  0.0189376
 0.0203891  0.0184891
 0.0216203  0.0180091
 0.0229234  0.0175054
 0.0243028  0.0169852
 0.0257628  0.0164546
 0.0273082  0.0159191
  0.028944  0.0153836
 0.0306754  0.0148522
 0.0325081  0.0143289
 0.0344479   0.013817
 0.0365012  0.0133195
 0.0386746  0.0128391
  0.040975  0.0123779
   0.04341  0.0119375
 0.0459873  0.0115194
 0.0487154  0.0111246
  0.051603  0.0107537
 0.0546595  0.0104066
 0.0578947   0.010083
 0.0613191 0.00978275
 0.0649437 0.00950486
 0.0687803 0.00924787
 0.0728413 0.00901074
 0.0771397 0.00879267
 0.0816895 0.00859221
 0.0865054 0.00840729
 0.0916029 0.00823566
 0.0969985 0.00807569
   0.10271 0.00792664
  0.108755 0.00778735
  0.115153 0.00765684
  0.121926 0.00753362
  0.129095 0.00741596
  0.136683 0.00730334
  0.144715 0.00719356
  0.153216 0.00708612
  0.162214  0.0069808
  0.171739 0.00687744
  0.181821 0.00677637
  0.192492 0.00667709
  0.203788 0.00657498
  0.215744 0.00646654
  0.228399 0.00635148
  0.241794 0.00622909
  0.255972 0.00610127
   0.27098 0.00596805
  0.286865 0.00582697
  0.304824 0.00567439
  0.324407 0.00550204
  0.343989 0.00532938
  0.363571 0.00514902
  0.383154  0.0049685
  0.402736 0.00479657
  0.422319 0.00462847
  0.441901 0.00446098
  0.461484 0.00429822
  0.481066 0.00414142
  0.500648 0.00398314
  0.520231 0.00383311
  0.539813 0.00369217
  0.559396 0.00355256
  0.578978 0.00341293
   0.59856 0.00327506
  0.618143 0.00313561
  0.637725 0.00299659
  0.657308 0.00285893
   0.67689 0.00272039
  0.696473 0.00258122
  0.716055 0.00244483
  0.735637 0.00231032
   0.75522 0.00217946
  0.774802 0.00205458
  0.794385 0.00193428
  0.813967  0.0018195
  0.833549    0.00171
  0.853132 0.00160967
  0.872714  0.0015194
  0.892297 0.00144122
  0.911879 0.00137366
  0.931462 0.00131818
  0.951044   0.001278
  0.970626 0.00125414
  0.990209 0.00124494
   1.00979 0.00125088
   1.02937 0.00127175
   1.04896 0.00130568
   1.06854 0.00135269
   1.08812 0.00141439
    1.1077 0.00148905
   1.12729 0.00157314
   1.14687 0.00166777
   1.16645  0.0017713
   1.18603 0.00188036
   1.20562 0.00199577
    1.2252 0.00211226
   1.24478 0.00223297
   1.26436 0.00236024
   1.28395 0.00249172
   1.30353 0.00262498
   1.32311 0.00276174
   1.34269 0.00290666
   1.36228 0.00305567
   1.38186 0.00320326
   1.40144 0.00335056
   1.42102 0.00350141
   1.44061 0.00365736
   1.46019 0.00381727
   1.47977 0.00397394
   1.49935 0.00413273
   1.51894 0.00429474
   1.53852 0.00446126
    1.5581 0.00462357
   1.57768 0.00478486
   1.59727  0.0049458
   1.61685 0.00511006
   1.63643 0.00528025
   1.65601 0.00545184
    1.6756 0.00561951
   1.69518 0.00577734
   1.71314 0.00590348
   1.72902 0.00602243
   1.74403 0.00613128
   1.75821 0.00622894
    1.7716 0.00632588
   1.78426 0.00642189
   1.79621  0.0065207
   1.80751  0.0066178
   1.81818  0.0067131
   1.82826 0.00680879
   1.83779 0.00690502
   1.84679 0.00700216
   1.85529 0.00710168
   1.86332 0.00720454
   1.87091 0.00731153
   1.87808 0.00742336
   1.88485 0.00754163
   1.89125 0.00766729
   1.89729 0.00780171
     1.903 0.00794587
    1.9084 0.00810138
    1.9135  0.0082699
   1.91831 0.00845306
   1.92286 0.00865201
   1.92716 0.00886778
   1.93122 0.00910186
   1.93506  0.0093558
   1.93868   0.009631
   1.94211 0.00992862
   1.94534  0.0102495
    1.9484   0.010594
   1.95129  0.0109624
   1.95401  0.0113544
   1.95659  0.0117696
   1.95903  0.0122073
   1.96133   0.012666
    1.9635  0.0131437
   1.96555  0.0136384
   1.96749  0.0141474
   1.96933  0.0146678
   1.97106  0.0151961
   1.97269  0.0157283
   1.97424  0.0162601
    1.9757  0.0167865
   1.97708   0.017302
   1.97838  0.0178006
   1.97961  0.0182753
   1.98077  0.0187185
   1.98187  0.0191217
   1.98291  0.0194756
   1.98389  0.0197702
   1.98482  0.0199951
   1.98569  0.0201402
   1.98652  0.0201953
    1.9873  0.0201518
   1.98804  0.0200022
   1.98874  0.0197415
    1.9894  0.0193673
   1.99002  0.0188804
   1.99061  0.0182851
   1.99116  0.0175892
   1.99169  0.0168035
   1.99218   0.015942
   1.99265  0.0150204
    1.9931  0.0140404
   1.99355  0.0129854
   1.99399  0.0118535
   1.99444  0.0106589
   1.99488 0.00942028
   1.99533 0.00816045
   1.99577 0.00690584
   1.99622 0.00568508
   1.99666  0.0045274
   1.99711 0.00346076
   1.99755 0.00250994
     1.998  0.0016952
   1.99844  0.0010314
   1.99889 0.000528166
   1.99933 0.000190693
   1.99978 2.12854e-05
         2          0
