         0          0
 0.0002225 8.06095e-06
 0.0006675 6.38586e-05
 0.0011125 0.000160558
 0.0015575 0.000286322
 0.0020025 0.000431688
 0.0024475 0.000589134
 0.0028925 0.000752781
 0.0033375 0.000918169
 0.0037825 0.00108204
 0.0042275 0.00124216
 0.0046725 0.00139705
 0.0051175 0.00154588
 0.0055625 0.00168825
 0.0060075 0.00182405
 0.0064525 0.00195336
 0.0068975  0.0020764
 0.0073476 0.00219485
0.00781612 0.00231214
0.00831203 0.00242978
0.00883694 0.00254744
0.00939255 0.00266477
0.00998065  0.0027814
 0.0106031 0.00289695
  0.011262   0.003011
 0.0119594 0.00312313
 0.0126977 0.00323287
  0.013479 0.00333978
 0.0143061 0.00344339
 0.0151815 0.00354324
 0.0161082  0.0036389
  0.017089 0.00372999
 0.0181271 0.00381615
  0.019226 0.00389709
 0.0203891 0.00397259
 0.0216203 0.00404246
 0.0229234 0.00410659
 0.0243028 0.00416491
 0.0257628 0.00421736
 0.0273082 0.00426391
  0.028944 0.00430459
 0.0306754 0.00433945
 0.0325081 0.00436866
 0.0344479 0.00439247
 0.0365012 0.00441121
 0.0386746 0.00442525
  0.040975 0.00443497
   0.04341 0.00444071
 0.0459873 0.00444278
 0.0487154 0.00444151
  0.051603 0.00443701
 0.0546595 0.00442937
 0.0578947 0.00441873
 0.0613191 0.00440514
 0.0649437 0.00438877
 0.0687803 0.00436978
 0.0728413  0.0043482
 0.0771397 0.00432435
 0.0816895 0.00429872
 0.0865054  0.0042716
 0.0916029 0.00424319
 0.0969985 0.00421341
   0.10271 0.00418226
  0.108755 0.00414992
  0.115153 0.00411672
  0.121926 0.00408213
  0.129095 0.00404586
  0.136683  0.0040082
  0.144715 0.00396918
  0.153216 0.00392989
  0.162214 0.00389095
  0.171739 0.00385227
  0.181821  0.0038128
  0.192492 0.00377121
  0.203788 0.00372717
  0.215744 0.00367924
  0.228399 0.00362731
  0.241794  0.0035734
  0.255972 0.00351718
   0.27098 0.00345833
  0.286865 0.00339328
  0.304824 0.00332928
  0.324407 0.00323903
  0.343989 0.00315363
  0.363571 0.00306247
  0.383154 0.00296939
  0.402736 0.00287455
  0.422319 0.00278418
  0.441901 0.00269951
  0.461484 0.00261725
  0.481066 0.00253365
  0.500648 0.00244751
  0.520231 0.00235919
  0.539813 0.00226942
  0.559396 0.00217926
  0.578978 0.00208897
   0.59856 0.00200156
  0.618143 0.00191426
  0.637725  0.0018259
  0.657308 0.00174277
   0.67689 0.00166199
  0.696473 0.00158094
  0.716055 0.00150228
  0.735637 0.00142551
   0.75522 0.00135346
  0.774802 0.00128715
  0.794385 0.00122543
  0.813967  0.0011677
  0.833549 0.00111488
  0.853132 0.00106707
  0.872714 0.00102426
  0.892297 0.00098585
  0.911879 0.000952391
  0.931462 0.00092491
  0.951044 0.000902747
  0.970626 0.000884776
  0.990209 0.000873312
   1.00979 0.000869282
   1.02937 0.000871769
   1.04896 0.000879459
   1.06854 0.000892699
   1.08812 0.000912532
    1.1077 0.000938504
   1.12729 0.000971299
   1.14687 0.00100998
   1.16645 0.00105363
   1.18603 0.00110175
   1.20562 0.00115462
    1.2252 0.00121148
   1.24478 0.00127203
   1.26436 0.00133735
   1.28395 0.00140846
   1.30353 0.00148525
   1.32311 0.00156761
   1.34269 0.00165563
   1.36228 0.00174434
   1.38186 0.00182926
   1.40144 0.00191355
   1.42102 0.00200145
   1.44061 0.00209452
   1.46019   0.002187
   1.47977 0.00228427
   1.49935 0.00238466
   1.51894 0.00247965
   1.53852 0.00257317
    1.5581  0.0026614
   1.57768  0.0027479
   1.59727 0.00283681
   1.61685 0.00292286
   1.63643 0.00300567
   1.65601 0.00308766
    1.6756 0.00317022
   1.69518 0.00326048
   1.71314 0.00333583
   1.72902 0.00341115
   1.74403 0.00347607
   1.75821 0.00353367
    1.7716 0.00358554
   1.78426 0.00363634
   1.79621  0.0036853
   1.80751 0.00373075
   1.81818  0.0037731
   1.82826 0.00381407
   1.83779  0.0038551
   1.84679 0.00389583
   1.85529 0.00393536
   1.86332 0.00397241
   1.87091 0.00400843
   1.87808 0.00404373
   1.88485 0.00407815
   1.89125 0.00411115
   1.89729 0.00414237
     1.903 0.00417202
    1.9084 0.00420029
    1.9135 0.00422665
   1.91831 0.00425071
   1.92286 0.00427258
   1.92716 0.00429271
   1.93122 0.00431117
   1.93506 0.00432761
   1.93868 0.00434181
   1.94211 0.00435374
   1.94534 0.00436329
    1.9484 0.00437028
   1.95129 0.00437448
   1.95401 0.00437562
   1.95659  0.0043735
   1.95903 0.00436788
   1.96133 0.00435842
    1.9635 0.00434472
   1.96555 0.00432646
   1.96749 0.00430336
   1.96933 0.00427519
   1.97106 0.00424169
   1.97269  0.0042026
   1.97424 0.00415775
    1.9757 0.00410704
   1.97708 0.00405041
   1.97838  0.0039879
   1.97961 0.00391958
   1.98077 0.00384562
   1.98187 0.00376619
   1.98291 0.00368158
   1.98389  0.0035921
   1.98482 0.00349809
   1.98569 0.00339995
   1.98652  0.0032981
    1.9873 0.00319295
   1.98804 0.00308495
   1.98874 0.00297456
    1.9894 0.00286221
   1.99002 0.00274832
   1.99061 0.00263332
   1.99116 0.00251759
   1.99169 0.00240148
   1.99218 0.00228536
   1.99265 0.00216955
    1.9931 0.00205258
   1.99355 0.00193105
   1.99399 0.00180329
   1.99444  0.0016691
   1.99488 0.00152839
   1.99533 0.00138128
   1.99577 0.00122816
   1.99622 0.00106986
   1.99666 0.000907835
   1.99711 0.000744305
   1.99755 0.000582492
     1.998 0.00042681
   1.99844 0.000283075
   1.99889 0.000158728
   1.99933 6.31257e-05
   1.99978 7.96729e-06
         2          0
