         0          0
 0.0002225 -2.00465e-10
 0.0006675 -4.42486e-09
 0.0011125 -1.8636e-08
 0.0015575 -4.80675e-08
 0.0020025 -9.60053e-08
 0.0024475 -1.62822e-07
 0.0028925 -2.45541e-07
 0.0033375 -3.37937e-07
 0.0037825 -4.31104e-07
 0.0042275 -5.14372e-07
 0.0046725 -5.76449e-07
 0.0051175 -6.0667e-07
 0.0055625 -5.96166e-07
 0.0060075 -5.38757e-07
 0.0064525 -4.31429e-07
 0.0068975 -2.74336e-07
 0.0073476 -6.80646e-08
0.00781612 1.91669e-07
0.00831203 5.09186e-07
0.00883694 8.82884e-07
0.00939255 1.30884e-06
0.00998065 1.78112e-06
 0.0106031 2.2921e-06
  0.011262 2.83284e-06
 0.0119594 3.39332e-06
 0.0126977 3.96294e-06
  0.013479 4.53083e-06
 0.0143061 5.08619e-06
 0.0151815 5.61878e-06
 0.0161082 6.1202e-06
  0.017089 6.58545e-06
 0.0181271 7.01411e-06
  0.019226 7.41042e-06
 0.0203891 7.78247e-06
 0.0216203 8.13998e-06
 0.0229234 8.48763e-06
 0.0243028 8.81346e-06
 0.0257628 9.08366e-06
 0.0273082 9.25273e-06
  0.028944 9.28008e-06
 0.0306754 9.14453e-06
 0.0325081 8.83728e-06
 0.0344479 8.32734e-06
 0.0365012 7.58457e-06
 0.0386746 6.6807e-06
  0.040975 5.74209e-06
   0.04341 4.83939e-06
 0.0459873 4.03567e-06
 0.0487154 3.3899e-06
  0.051603 2.87717e-06
 0.0546595 2.43743e-06
 0.0578947 2.05182e-06
 0.0613191 1.64286e-06
 0.0649437 1.3472e-06
 0.0687803 1.3601e-06
 0.0728413 1.8155e-06
 0.0771397 2.81974e-06
 0.0816895 4.39331e-06
 0.0865054 6.24227e-06
 0.0916029 7.93501e-06
 0.0969985 8.94893e-06
   0.10271 8.95611e-06
  0.108755 7.76937e-06
  0.115153 6.1469e-06
  0.121926 4.66551e-06
  0.129095 3.24276e-06
  0.136683 2.09394e-06
  0.144715 1.04732e-06
  0.153216 1.01854e-07
  0.162214 -1.35802e-06
  0.171739 -4.59704e-06
  0.181821 -9.57614e-06
  0.192492 -1.41837e-05
  0.203788 -1.75326e-05
  0.215744 -2.03729e-05
  0.228399 -2.43255e-05
  0.241794 -3.08764e-05
  0.255972 -3.70554e-05
   0.27098 -3.97111e-05
  0.286865 -4.04002e-05
  0.304824 -3.62965e-05
  0.324407 -3.15924e-05
  0.343989 -2.51427e-05
  0.363571 -2.04103e-05
  0.383154 -1.89288e-05
  0.402736 -1.56604e-05
  0.422319 -1.1565e-05
  0.441901 -1.03065e-05
  0.461484 -8.44674e-06
  0.481066 -7.99463e-06
  0.500648 -6.56111e-06
  0.520231 -3.66092e-06
  0.539813 -3.51748e-06
  0.559396 -5.0781e-06
  0.578978 -9.38405e-06
   0.59856 -1.02475e-05
  0.618143 -1.23147e-05
  0.637725 -1.32036e-05
  0.657308 -1.32902e-05
   0.67689 -1.44894e-05
  0.696473 -1.38358e-05
  0.716055 -1.09869e-05
  0.735637 -7.68087e-06
   0.75522 -4.62255e-06
  0.774802 -1.37466e-06
  0.794385 1.78656e-06
  0.813967 3.30511e-06
  0.833549 5.45977e-06
  0.853132 8.66553e-06
  0.872714 1.13557e-05
  0.892297 1.35567e-05
  0.911879 1.58797e-05
  0.931462 1.77168e-05
  0.951044 1.92124e-05
  0.970626 1.96221e-05
  0.990209 1.85013e-05
   1.00979 1.75547e-05
   1.02937 1.69395e-05
   1.04896 1.69275e-05
   1.06854 1.70098e-05
   1.08812 1.70677e-05
    1.1077 1.7441e-05
   1.12729 1.73225e-05
   1.14687 1.68827e-05
   1.16645 1.68127e-05
   1.18603 1.70707e-05
   1.20562 1.58446e-05
    1.2252 1.25768e-05
   1.24478 8.37592e-06
   1.26436 4.25659e-06
   1.28395 9.10957e-07
   1.30353 -8.07668e-07
   1.32311 5.69127e-07
   1.34269 -6.19691e-07
   1.36228 -2.37096e-06
   1.38186 -3.0266e-06
   1.40144 -2.13232e-06
   1.42102 -2.41872e-06
   1.44061 -4.29184e-06
   1.46019 -6.47202e-06
   1.47977 -8.43433e-06
   1.49935 -1.09177e-05
   1.51894 -1.43224e-05
   1.53852 -1.98389e-05
    1.5581 -2.35985e-05
   1.57768 -2.21776e-05
   1.59727 -2.00078e-05
   1.61685 -1.59031e-05
   1.63643 -1.26509e-05
   1.65601 -8.63107e-06
    1.6756 -1.09799e-05
   1.69518 -9.90853e-06
   1.71314 -6.79944e-06
   1.72902 -6.18941e-06
   1.74403 -5.43704e-06
   1.75821 -4.77474e-06
    1.7716 -4.95326e-06
   1.78426 -4.0809e-06
   1.79621 -3.04028e-06
   1.80751 -1.00535e-06
   1.81818 3.56449e-06
   1.82826 8.18908e-06
   1.83779  1.172e-05
   1.84679 1.35202e-05
   1.85529 1.50549e-05
   1.86332 1.71716e-05
   1.87091 1.91768e-05
   1.87808 2.04424e-05
   1.88485 2.1078e-05
   1.89125 2.10062e-05
   1.89729 2.05669e-05
     1.903 2.00254e-05
    1.9084 1.96934e-05
    1.9135 1.99462e-05
   1.91831 2.06454e-05
   1.92286 2.14551e-05
   1.92716 2.23352e-05
   1.93122 2.31296e-05
   1.93506 2.34922e-05
   1.93868 2.34758e-05
   1.94211 2.32263e-05
   1.94534 2.29442e-05
    1.9484 2.27207e-05
   1.95129 2.25385e-05
   1.95401 2.24383e-05
   1.95659 2.24158e-05
   1.95903 2.2394e-05
   1.96133 2.22871e-05
    1.9635 2.20524e-05
   1.96555 2.17152e-05
   1.96749 2.1316e-05
   1.96933 2.08711e-05
   1.97106 2.04195e-05
   1.97269 2.00399e-05
   1.97424 1.97901e-05
    1.9757 1.96656e-05
   1.97708 1.96199e-05
   1.97838 1.96009e-05
   1.97961 1.95737e-05
   1.98077 1.95242e-05
   1.98187 1.94514e-05
   1.98291 1.93584e-05
   1.98389 1.92464e-05
   1.98482 1.91122e-05
   1.98569 1.89474e-05
   1.98652 1.87402e-05
    1.9873 1.84779e-05
   1.98804 1.81486e-05
   1.98874 1.77438e-05
    1.9894 1.72596e-05
   1.99002 1.66972e-05
   1.99061 1.60621e-05
   1.99116 1.53633e-05
   1.99169 1.46114e-05
   1.99218 1.38178e-05
   1.99265 1.29937e-05
    1.9931 1.2136e-05
   1.99355 1.12266e-05
   1.99399 1.02601e-05
   1.99444 9.24342e-06
   1.99488 8.1871e-06
   1.99533 7.10624e-06
   1.99577 6.02081e-06
   1.99622 4.95529e-06
   1.99666 3.93739e-06
   1.99711 2.99568e-06
   1.99755 2.15669e-06
     1.998 1.44206e-06
   1.99844 8.66555e-07
   1.99889 4.37448e-07
   1.99933 1.5548e-07
   1.99978 1.70304e-08
         2          0
