         0          0
 0.0002225 2.9037e-10
 0.0006675 2.60823e-08
 0.0011125 1.79672e-07
 0.0015575 6.28426e-07
 0.0020025 1.56111e-06
 0.0024475 3.16696e-06
 0.0028925 5.6248e-06
 0.0033375 9.09376e-06
 0.0037825 1.37075e-05
 0.0042275 1.95719e-05
 0.0046725 2.6766e-05
 0.0051175 3.53426e-05
 0.0055625 4.53318e-05
 0.0060075 5.67429e-05
 0.0064525 6.95678e-05
 0.0068975 8.37842e-05
 0.0073476 9.95494e-05
0.00781612 0.000117403
0.00831203 0.000137844
0.00883694 0.000161128
0.00939255 0.000187512
0.00998065 0.000217253
 0.0106031 0.000250598
  0.011262 0.000287784
 0.0119594 0.000329027
 0.0126977 0.000374514
  0.013479 0.000424398
 0.0143061 0.000478786
 0.0151815 0.000537736
 0.0161082 0.000601246
  0.017089 0.00066925
 0.0181271 0.00074161
  0.019226 0.000818119
 0.0203891 0.000898496
 0.0216203 0.000982388
 0.0229234 0.00106938
 0.0243028 0.00115898
 0.0257628 0.00125066
 0.0273082 0.00134383
  0.028944 0.00143787
 0.0306754 0.00153212
 0.0325081 0.00162592
 0.0344479 0.00171857
 0.0365012 0.00180939
 0.0386746 0.00189774
  0.040975 0.00198298
   0.04341 0.00206454
 0.0459873 0.00214194
 0.0487154 0.00221474
  0.051603 0.00228267
 0.0546595 0.00234554
 0.0578947 0.00240326
 0.0613191 0.00245579
 0.0649437  0.0025032
 0.0687803 0.00254562
 0.0728413 0.00258325
 0.0771397 0.00261633
 0.0816895 0.00264511
 0.0865054 0.00266984
 0.0916029 0.00269082
 0.0969985 0.00270831
   0.10271 0.00272245
  0.108755 0.00273328
  0.115153 0.00274082
  0.121926 0.00274508
  0.129095 0.00274633
  0.136683 0.00274451
  0.144715 0.00273999
  0.153216 0.00273282
  0.162214 0.00272328
  0.171739 0.00271076
  0.181821 0.00269544
  0.192492 0.00267664
  0.203788 0.00265485
  0.215744 0.00262976
  0.228399 0.00260202
  0.241794 0.00257076
  0.255972  0.0025367
   0.27098 0.00249916
  0.286865 0.00245981
  0.304824 0.00241523
  0.324407 0.00236395
  0.343989 0.00231172
  0.363571 0.00225889
  0.383154 0.00220602
  0.402736 0.00215228
  0.422319 0.00209874
  0.441901 0.00204541
  0.461484 0.00199162
  0.481066 0.00193799
  0.500648 0.00188507
  0.520231 0.00183196
  0.539813 0.00177863
  0.559396 0.00172512
  0.578978 0.00167099
   0.59856  0.0016168
  0.618143 0.00156222
  0.637725 0.00150849
  0.657308 0.00145522
   0.67689 0.00140383
  0.696473 0.00135445
  0.716055 0.00130669
  0.735637 0.00126083
   0.75522 0.00121668
  0.774802 0.00117485
  0.794385 0.00113481
  0.813967 0.00109661
  0.833549 0.00106056
  0.853132 0.00102801
  0.872714 0.000998571
  0.892297 0.000972408
  0.911879 0.000950112
  0.931462 0.000931707
  0.951044 0.000916972
  0.970626 0.000906097
  0.990209 0.000899239
   1.00979 0.000896967
   1.02937 0.000899128
   1.04896 0.000905513
   1.06854 0.000915424
   1.08812 0.00092898
    1.1077 0.00094636
   1.12729 0.000967667
   1.14687 0.00099223
   1.16645 0.00102019
   1.18603 0.00105135
   1.20562  0.0010862
    1.2252 0.00112524
   1.24478 0.00116761
   1.26436 0.00121241
   1.28395 0.00125883
   1.30353 0.00130738
   1.32311 0.00135657
   1.34269 0.00140795
   1.36228  0.0014606
   1.38186 0.00151383
   1.40144 0.00156842
   1.42102 0.00162467
   1.44061 0.00168196
   1.46019 0.00174022
   1.47977 0.00179873
   1.49935 0.00185634
   1.51894  0.0019132
   1.53852 0.00196849
    1.5581 0.00202344
   1.57768 0.00207755
   1.59727 0.00213178
   1.61685 0.00218634
   1.63643 0.00224062
   1.65601 0.00229527
    1.6756 0.00234962
   1.69518 0.00240185
   1.71314 0.00244909
   1.72902 0.00249169
   1.74403  0.0025324
   1.75821 0.00256916
    1.7716 0.00260243
   1.78426 0.00263191
   1.79621 0.00265819
   1.80751 0.00268111
   1.81818 0.00270083
   1.82826 0.00271746
   1.83779 0.00273089
   1.84679 0.00274139
   1.85529 0.00274893
   1.86332 0.00275345
   1.87091 0.00275478
   1.87808 0.00275302
   1.88485 0.00274817
   1.89125 0.00274035
   1.89729 0.00272953
     1.903 0.00271549
    1.9084 0.00269795
    1.9135 0.00267681
   1.91831 0.00265186
   1.92286  0.0026228
   1.92716 0.00258932
   1.93122 0.00255118
   1.93506 0.00250816
   1.93868 0.00246006
   1.94211 0.00240673
   1.94534 0.00234808
    1.9484 0.00228418
   1.95129 0.00221517
   1.95401 0.00214133
   1.95659 0.00206297
   1.95903 0.00198052
   1.96133 0.00189447
    1.9635  0.0018054
   1.96555 0.00171392
   1.96749 0.00162069
   1.96933 0.00152641
   1.97106 0.00143176
   1.97269 0.00133743
   1.97424 0.00124409
    1.9757 0.00115234
   1.97708 0.00106277
   1.97838 0.000975902
   1.97961 0.00089221
   1.98077 0.000812096
   1.98187 0.000735898
   1.98291 0.000663884
   1.98389 0.000596248
   1.98482 0.000533118
   1.98569 0.000474551
   1.98652 0.000420541
    1.9873 0.000371027
   1.98804 0.000325894
   1.98874 0.000284988
    1.9894 0.000248118
   1.99002 0.000215066
   1.99061 0.000185595
   1.99116 0.000159456
   1.99169 0.000136394
   1.99218 0.000116152
   1.99265 9.84762e-05
    1.9931 8.28702e-05
   1.99355 6.87996e-05
   1.99399 5.61086e-05
   1.99444 4.48186e-05
   1.99488 3.49373e-05
   1.99533 2.64549e-05
   1.99577 1.93413e-05
   1.99622 1.35436e-05
   1.99666 8.98346e-06
   1.99711 5.55551e-06
   1.99755 3.12731e-06
     1.998 1.54122e-06
   1.99844 6.20256e-07
   1.99889 1.77278e-07
   1.99933 2.57214e-08
   1.99978 2.85592e-10
         2          0
