         0   -1.02052
 0.0002225   -1.02343
 0.0006675   -3.06356
 0.0011125   -4.93289
 0.0015575   -6.46271
 0.0020025   -7.52258
 0.0024475   -8.02759
 0.0028925   -7.94158
 0.0033375   -7.27519
 0.0037825   -6.07916
 0.0042275   -4.43401
 0.0046725   -2.43799
 0.0051175  -0.195521
 0.0055625    2.19252
 0.0060075     4.6357
 0.0064525    7.05809
 0.0068975    9.39976
 0.0073476    11.6401
0.00781612    13.8014
0.00831203    15.8788
0.00883694    17.8315
0.00939255    19.6243
0.00998065     21.229
 0.0106031    22.6255
  0.011262    23.8015
 0.0119594    24.7524
 0.0126977    25.4806
  0.013479     25.994
 0.0143061    26.3052
 0.0151815    26.4298
 0.0161082     26.385
  0.017089    26.1892
 0.0181271    25.8604
  0.019226    25.4158
 0.0203891    24.8718
 0.0216203    24.2435
 0.0229234    23.5449
 0.0243028    22.7891
 0.0257628    21.9883
 0.0273082    21.1532
  0.028944    20.2937
 0.0306754    19.4177
 0.0325081    18.5325
 0.0344479    17.6455
 0.0365012    16.7637
 0.0386746    15.8935
  0.040975    15.0391
   0.04341    14.2042
 0.0459873    13.3927
 0.0487154    12.6088
  0.051603    11.8549
 0.0546595    11.1323
 0.0578947    10.4424
 0.0613191    9.78661
 0.0649437     9.1641
 0.0687803    8.57331
 0.0728413    8.01477
 0.0771397    7.48894
 0.0816895    6.99459
 0.0865054    6.53077
 0.0916029    6.09605
 0.0969985    5.68898
   0.10271    5.30754
  0.108755    4.94836
  0.115153    4.61023
  0.121926    4.29283
  0.129095    3.99705
  0.136683    3.72223
  0.144715    3.46648
  0.153216    3.22822
  0.162214    3.00573
  0.171739    2.79944
  0.181821    2.60764
  0.192492    2.42852
  0.203788    2.25937
  0.215744    2.10072
  0.228399    1.95464
  0.241794    1.81848
  0.255972    1.69161
   0.27098    1.57322
  0.286865    1.46574
  0.304824    1.34969
  0.324407    1.24286
  0.343989    1.14794
  0.363571    1.06935
  0.383154    1.00097
  0.402736   0.937101
  0.422319   0.880361
  0.441901    0.82984
  0.461484    0.78318
  0.481066   0.737586
  0.500648   0.694619
  0.520231   0.652274
  0.539813   0.612629
  0.559396   0.574001
  0.578978   0.538793
   0.59856   0.504757
  0.618143   0.472483
  0.637725   0.443187
  0.657308   0.414617
   0.67689   0.387424
  0.696473   0.361075
  0.716055   0.335209
  0.735637   0.311196
   0.75522   0.287839
  0.774802   0.263681
  0.794385   0.239868
  0.813967   0.216516
  0.833549   0.193492
  0.853132   0.170675
  0.872714   0.147989
  0.892297   0.124949
  0.911879   0.101339
  0.931462  0.0780991
  0.951044  0.0556364
  0.970626  0.0342618
  0.990209   0.013285
   1.00979 -0.00805186
   1.02937 -0.0300835
   1.04896 -0.0522147
   1.06854 -0.0736797
   1.08812 -0.0951307
    1.1077  -0.116347
   1.12729  -0.138159
   1.14687  -0.160825
   1.16645  -0.183704
   1.18603  -0.205618
   1.20562  -0.227884
    1.2252  -0.251105
   1.24478  -0.275086
   1.26436   -0.29964
   1.28395  -0.326674
   1.30353   -0.35602
   1.32311  -0.386189
   1.34269  -0.416036
   1.36228  -0.446216
   1.38186  -0.477773
   1.40144  -0.510792
   1.42102  -0.544745
   1.44061  -0.579455
   1.46019  -0.614934
   1.47977  -0.651614
   1.49935  -0.691264
   1.51894  -0.734602
   1.53852  -0.782363
    1.5581  -0.832351
   1.57768  -0.886344
   1.59727  -0.946576
   1.61685    -1.0132
   1.63643   -1.08761
   1.65601   -1.16885
    1.6756   -1.26179
   1.69518   -1.37049
   1.71314   -1.49664
   1.72902   -1.61747
   1.74403   -1.74747
   1.75821   -1.88219
    1.7716   -2.02643
   1.78426   -2.17899
   1.79621   -2.34031
   1.80751   -2.51036
   1.81818   -2.69173
   1.82826   -2.88668
   1.83779   -3.09649
   1.84679   -3.32171
   1.85529   -3.56365
   1.86332   -3.82159
   1.87091   -4.09488
   1.87808   -4.38615
   1.88485   -4.69749
   1.89125    -5.0285
   1.89729    -5.3809
     1.903   -5.75682
    1.9084   -6.15705
    1.9135   -6.58352
   1.91831   -7.03888
   1.92286   -7.52364
   1.92716    -8.0391
   1.93122   -8.58672
   1.93506    -9.1668
   1.93868    -9.7802
   1.94211   -10.4267
   1.94534   -11.1054
    1.9484   -11.8154
   1.95129   -12.5559
   1.95401   -13.3255
   1.95659   -14.1215
   1.95903     -14.94
   1.96133   -15.7771
    1.9635   -16.6289
   1.96555   -17.4906
   1.96749   -18.3568
   1.96933   -19.2214
   1.97106    -20.078
   1.97269   -20.9188
   1.97424   -21.7349
    1.9757   -22.5162
   1.97708   -23.2521
   1.97838   -23.9312
   1.97961   -24.5408
   1.98077   -25.0672
   1.98187   -25.4955
   1.98291   -25.8094
   1.98389   -25.9915
   1.98482    -26.024
   1.98569   -25.8891
   1.98652     -25.57
    1.9873   -25.0516
   1.98804   -24.3222
   1.98874   -23.3741
    1.9894   -22.2053
   1.99002   -20.8206
   1.99061   -19.2322
   1.99116   -17.4601
   1.99169   -15.5322
   1.99218   -13.4834
   1.99265   -11.3538
    1.9931   -9.14819
   1.99355   -6.84473
   1.99399   -4.46385
   1.99444   -2.06454
   1.99488   0.278623
   1.99533    2.47692
   1.99577    4.43151
   1.99622    6.04022
   1.99666    7.20696
   1.99711    7.85307
   1.99755     7.9291
     1.998    7.42483
   1.99844    6.37587
   1.99889    4.86553
   1.99933     3.0217
   1.99978    1.00967
         2    1.00692
