         0    162.804
 0.0002225    147.939
 0.0006675    122.412
 0.0011125    101.532
 0.0015575    84.3795
 0.0020025    70.4621
 0.0024475    59.4808
 0.0028925    51.1813
 0.0033375    45.2808
 0.0037825    41.4484
 0.0042275    39.3194
 0.0046725    38.5236
 0.0051175    38.7136
 0.0055625    39.5853
 0.0060075    40.8878
 0.0064525     42.425
 0.0068975    44.0511
 0.0073476    45.6709
0.00781612    47.2494
0.00831203    48.7661
0.00883694    50.1659
0.00939255    51.4044
0.00998065    52.4485
 0.0106031    53.2761
  0.011262    53.8755
 0.0119594    54.2437
 0.0126977    54.3856
  0.013479    54.3118
 0.0143061    54.0373
 0.0151815    53.5797
 0.0161082    52.9576
  0.017089    52.1886
 0.0181271    51.2895
  0.019226    50.2751
 0.0203891    49.1592
 0.0216203    47.9544
 0.0229234    46.6721
 0.0243028    45.3233
 0.0257628    43.9197
 0.0273082    42.4738
  0.028944    40.9959
 0.0306754    39.4951
 0.0325081    37.9799
 0.0344479    36.4578
 0.0365012    34.9376
 0.0386746    33.4255
  0.040975    31.9251
   0.04341    30.4443
 0.0459873    28.9899
 0.0487154    27.5651
  0.051603    26.1797
 0.0546595    24.8434
 0.0578947    23.5571
 0.0613191    22.3213
 0.0649437    21.1339
 0.0687803    19.9966
 0.0728413    18.9169
 0.0771397    17.8954
 0.0816895    16.9271
 0.0865054    16.0089
 0.0916029    15.1407
 0.0969985    14.3224
   0.10271    13.5482
  0.108755    12.8137
  0.115153    12.1126
  0.121926    11.4495
  0.129095    10.8255
  0.136683    10.2357
  0.144715    9.68074
  0.153216    9.15411
  0.162214    8.65488
  0.171739    8.18006
  0.181821    7.72661
  0.192492    7.29371
  0.203788    6.87856
  0.215744    6.48232
  0.228399    6.10143
  0.241794    5.73378
  0.255972    5.38306
   0.27098    5.05457
  0.286865     4.6674
  0.304824    4.23331
  0.324407    3.94845
  0.343989    3.74505
  0.363571    3.54699
  0.383154    3.35435
  0.402736    3.17145
  0.422319    3.00015
  0.441901    2.83995
  0.461484    2.68332
  0.481066    2.53227
  0.500648    2.39374
  0.520231    2.26014
  0.539813    2.13672
  0.559396    2.01812
  0.578978    1.90142
   0.59856    1.78919
  0.618143    1.68332
  0.637725    1.58555
  0.657308    1.49191
   0.67689    1.40345
  0.696473    1.31909
  0.716055    1.23915
  0.735637    1.16427
   0.75522    1.09144
  0.774802    1.02244
  0.794385   0.956467
  0.813967   0.893023
  0.833549    0.83535
  0.853132   0.786477
  0.872714   0.741224
  0.892297   0.700879
  0.911879   0.667813
  0.931462   0.641164
  0.951044   0.621634
  0.970626   0.608978
  0.990209   0.601162
   1.00979   0.598872
   1.02937   0.603859
   1.04896   0.615333
   1.06854   0.632719
   1.08812   0.655652
    1.1077   0.685101
   1.12729   0.722047
   1.14687    0.76434
   1.16645   0.810004
   1.18603   0.858211
   1.20562    0.91381
    1.2252   0.975689
   1.24478    1.04306
   1.26436    1.11579
   1.28395    1.19466
   1.30353    1.28183
   1.32311    1.37217
   1.34269    1.46553
   1.36228    1.56314
   1.38186    1.66178
   1.40144    1.76889
   1.42102    1.88207
   1.44061    1.99954
   1.46019    2.12421
   1.47977    2.25483
   1.49935    2.38819
   1.51894    2.52847
   1.53852     2.6795
    1.5581    2.83797
   1.57768    3.00411
   1.59727    3.17894
   1.61685    3.36492
   1.63643     3.5646
   1.65601    3.77653
    1.6756    3.98668
   1.69518    4.27716
   1.71314    4.72731
   1.72902    5.13956
   1.74403    5.48552
   1.75821    5.84445
    1.7716    6.22291
   1.78426    6.62021
   1.79621    7.03118
   1.80751    7.45351
   1.81818    7.89281
   1.82826    8.35055
   1.83779    8.83022
   1.84679    9.33664
   1.85529    9.87128
   1.86332    10.4356
   1.87091    11.0238
   1.87808    11.6441
   1.88485    12.2953
   1.89125    12.9799
   1.89729    13.7055
     1.903    14.4727
    1.9084     15.281
    1.9135    16.1355
   1.91831     17.041
   1.92286     17.997
   1.92716     19.002
   1.93122    20.0583
   1.93506     21.172
   1.93868    22.3402
   1.94211     23.555
   1.94534    24.8164
    1.9484    26.1231
   1.95129    27.4696
   1.95401    28.8541
   1.95659    30.2729
   1.95903     31.719
   1.96133    33.1841
    1.9635    34.6651
   1.96555    36.1556
   1.96749    37.6457
   1.96933    39.1253
   1.97106    40.5867
   1.97269    42.0245
   1.97424    43.4297
    1.9757    44.7917
   1.97708    46.1013
   1.97838    47.3478
   1.97961    48.5202
   1.98077    49.6073
   1.98187     50.596
   1.98291    51.4709
   1.98389    52.2155
   1.98482    52.8127
   1.98569    53.2454
   1.98652    53.4966
    1.9873    53.5504
   1.98804    53.3933
   1.98874    53.0154
    1.9894    52.4126
   1.99002    51.5875
   1.99061    50.5517
   1.99116    49.3266
   1.99169    47.9447
   1.99218    46.4496
   1.99265    44.8957
    1.9931    43.3037
   1.99355    41.7085
   1.99399    40.2048
   1.99444    38.9369
   1.99488    38.0986
   1.99533    37.9374
   1.99577    38.7528
   1.99622     40.887
   1.99666     44.704
   1.99711    50.5626
   1.99755    58.7882
     1.998    69.6595
   1.99844    83.4273
   1.99889    100.386
   1.99933    121.022
   1.99978    146.236
         2    160.913
