         0   -48.0827
 0.0002225   -48.0699
 0.0006675   -48.0322
 0.0011125   -47.9572
 0.0015575   -47.8188
 0.0020025   -47.5919
 0.0024475    -47.254
 0.0028925   -46.7869
 0.0033375   -46.1784
 0.0037825   -45.4231
 0.0042275   -44.5227
 0.0046725   -43.4852
 0.0051175   -42.3243
 0.0055625   -41.0578
 0.0060075   -39.7063
 0.0064525   -38.2915
 0.0068975   -36.8348
 0.0073476   -35.3396
0.00781612   -33.7805
0.00831203   -32.1472
0.00883694    -30.457
0.00939255    -28.729
0.00998065   -26.9832
 0.0106031   -25.2398
  0.011262    -23.518
 0.0119594   -21.8352
 0.0126977   -20.2063
  0.013479   -18.6434
 0.0143061   -17.1555
 0.0151815   -15.7488
 0.0161082   -14.4272
  0.017089   -13.1924
 0.0181271   -12.0446
  0.019226   -10.9823
 0.0203891   -10.0029
 0.0216203   -9.10212
 0.0229234   -8.27494
 0.0243028   -7.51681
 0.0257628   -6.82474
 0.0273082   -6.19786
  0.028944   -5.63627
 0.0306754   -5.13751
 0.0325081   -4.69421
 0.0344479   -4.29671
 0.0365012   -3.93747
 0.0386746   -3.61147
  0.040975   -3.31433
   0.04341   -3.04304
 0.0459873   -2.79763
 0.0487154   -2.57662
  0.051603   -2.37452
 0.0546595   -2.19167
 0.0578947   -2.03544
 0.0613191   -1.90535
 0.0649437   -1.79136
 0.0687803   -1.68077
 0.0728413   -1.56756
 0.0771397   -1.46295
 0.0816895    -1.3749
 0.0865054   -1.29608
 0.0916029   -1.23022
 0.0969985   -1.18706
   0.10271   -1.14694
  0.108755   -1.10028
  0.115153   -1.06034
  0.121926    -1.0187
  0.129095  -0.962504
  0.136683  -0.903408
  0.144715  -0.863373
  0.153216  -0.833503
  0.162214  -0.799352
  0.171739  -0.774671
  0.181821  -0.766262
  0.192492  -0.769485
  0.203788  -0.778093
  0.215744  -0.764854
  0.228399  -0.719391
  0.241794  -0.661764
  0.255972  -0.646274
   0.27098  -0.657524
  0.286865  -0.623118
  0.304824  -0.574755
  0.324407  -0.545392
  0.343989  -0.523555
  0.363571  -0.499256
  0.383154  -0.471658
  0.402736  -0.435672
  0.422319   -0.39961
  0.441901  -0.385374
  0.461484  -0.388506
  0.481066  -0.378141
  0.500648  -0.352952
  0.520231  -0.332919
  0.539813  -0.311206
  0.559396  -0.295375
  0.578978   -0.28288
   0.59856  -0.278674
  0.618143   -0.29582
  0.637725  -0.297314
  0.657308  -0.271863
   0.67689  -0.257198
  0.696473  -0.255964
  0.716055  -0.247656
  0.735637  -0.232399
   0.75522  -0.225096
  0.774802  -0.215229
  0.794385  -0.188328
  0.813967   -0.15771
  0.833549  -0.144475
  0.853132  -0.142681
  0.872714   -0.12913
  0.892297  -0.109365
  0.911879 -0.0854462
  0.931462  -0.053814
  0.951044 -0.0259398
  0.970626 -0.0064417
  0.990209   0.010846
   1.00979  0.0342413
   1.02937   0.062253
   1.04896  0.0862434
   1.06854  0.0961698
   1.08812  0.0919007
    1.1077  0.0942084
   1.12729   0.112877
   1.14687   0.140957
   1.16645   0.166047
   1.18603     0.1828
   1.20562   0.196195
    1.2252   0.215607
   1.24478   0.233529
   1.26436   0.226957
   1.28395    0.22279
   1.30353   0.227054
   1.32311   0.228307
   1.34269   0.253102
   1.36228   0.275528
   1.38186   0.268843
   1.40144    0.28053
   1.42102   0.323734
   1.44061   0.350499
   1.46019   0.364598
   1.47977   0.374846
   1.49935   0.382674
   1.51894   0.396057
   1.53852   0.392607
    1.5581   0.382258
   1.57768   0.377225
   1.59727   0.391039
   1.61685   0.426721
   1.63643   0.460159
   1.65601   0.481189
    1.6756   0.501785
   1.69518   0.527842
   1.71314   0.555291
   1.72902   0.585602
   1.74403   0.601824
   1.75821   0.612388
    1.7716    0.64099
   1.78426   0.677815
   1.79621   0.709724
   1.80751   0.730615
   1.81818   0.753532
   1.82826   0.796204
   1.83779   0.837214
   1.84679   0.868322
   1.85529   0.897046
   1.86332   0.926805
   1.87091   0.970246
   1.87808    1.02866
   1.88485    1.08411
   1.89125     1.1283
   1.89729     1.1697
     1.903     1.2121
    1.9084    1.26721
    1.9135    1.34229
   1.91831    1.42093
   1.92286    1.49542
   1.92716    1.58356
   1.93122    1.69212
   1.93506    1.81229
   1.93868    1.94118
   1.94211    2.07913
   1.94534     2.2256
    1.9484    2.38649
   1.95129    2.57268
   1.95401    2.78662
   1.95659    3.02451
   1.95903    3.28753
   1.96133    3.58004
    1.9635    3.90367
   1.96555    4.26015
   1.96749     4.6562
   1.96933    5.10086
   1.97106    5.59893
   1.97269    6.15106
   1.97424    6.75841
    1.9757    7.42455
   1.97708    8.15446
   1.97838    8.95385
   1.97961    9.82898
   1.98077     10.786
   1.98187    11.8305
   1.98291    12.9671
   1.98389    14.1987
   1.98482    15.5266
   1.98569    16.9492
   1.98652    18.4619
    1.9873    20.0574
   1.98804    21.7249
   1.98874    23.4506
    1.9894     25.218
   1.99002    27.0088
   1.99061    28.8031
   1.99116    30.5808
   1.99169    32.3218
   1.99218    34.0072
   1.99265    35.6198
    1.9931    37.1707
   1.99355    38.6865
   1.99399    40.1643
   1.99444    41.5819
   1.99488    42.9164
   1.99533    44.1457
   1.99577    45.2497
   1.99622    46.2125
   1.99666    47.0237
   1.99711      47.68
   1.99755    48.1853
     1.998    48.5516
   1.99844    48.7975
   1.99889    48.9469
   1.99933     49.027
   1.99978    49.0661
         2     49.079
