         0    436.688
 0.0002225    435.082
 0.0006675    433.267
 0.0011125    431.901
 0.0015575    429.298
 0.0020025    424.087
 0.0024475    415.289
 0.0028925    402.459
 0.0033375    385.754
 0.0037825    365.885
 0.0042275    343.948
 0.0046725    321.195
 0.0051175    298.822
 0.0055625    277.804
 0.0060075    258.815
 0.0064525    242.217
 0.0068975    228.097
 0.0073476    216.171
0.00781612    205.971
0.00831203    197.303
0.00883694    190.001
0.00939255    183.804
0.00998065    178.399
 0.0106031    173.461
  0.011262    168.687
 0.0119594    163.828
 0.0126977    158.703
  0.013479    153.207
 0.0143061    147.305
 0.0151815    141.017
 0.0161082    134.404
  0.017089    127.551
 0.0181271    120.556
  0.019226    113.515
 0.0203891    106.517
 0.0216203    99.6419
 0.0229234    92.9555
 0.0243028    86.5097
 0.0257628    80.3433
 0.0273082     74.484
  0.028944      68.95
 0.0306754    63.7501
 0.0325081    58.8875
 0.0344479    54.3561
 0.0365012    50.1523
 0.0386746    46.2623
  0.040975    42.6716
   0.04341    39.3717
 0.0459873    36.3428
 0.0487154    33.5573
  0.051603     30.998
 0.0546595    28.6586
 0.0578947    26.5121
 0.0613191    24.5312
 0.0649437    22.7131
 0.0687803    21.0524
 0.0728413    19.5184
 0.0771397    18.0923
 0.0816895    16.7801
 0.0865054    15.5765
 0.0916029    14.4719
 0.0969985    13.4539
   0.10271    12.5124
  0.108755    11.6427
  0.115153    10.8375
  0.121926    10.0964
  0.129095    9.41479
  0.136683    8.77659
  0.144715    8.18553
  0.153216    7.64176
  0.162214     7.1417
  0.171739    6.67307
  0.181821    6.23061
  0.192492    5.81152
  0.203788    5.42225
  0.215744    5.06708
  0.228399    4.73331
  0.241794    4.41538
  0.255972    4.11765
   0.27098    3.83122
  0.286865    3.48175
  0.304824    3.10266
  0.324407    2.87446
  0.343989    2.73537
  0.363571    2.59541
  0.383154     2.4668
  0.402736    2.34422
  0.422319    2.22044
  0.441901     2.1059
  0.461484    2.00187
  0.481066    1.89951
  0.500648    1.79961
  0.520231    1.70334
  0.539813    1.61022
  0.559396    1.52628
  0.578978    1.44765
   0.59856    1.37033
  0.618143    1.29629
  0.637725    1.22486
  0.657308    1.15599
   0.67689    1.09426
  0.696473    1.03759
  0.716055   0.982456
  0.735637   0.928703
   0.75522   0.879855
  0.774802   0.834104
  0.794385   0.791157
  0.813967   0.749794
  0.833549   0.713206
  0.853132   0.680322
  0.872714   0.650617
  0.892297   0.624996
  0.911879   0.605115
  0.931462   0.588065
  0.951044   0.573329
  0.970626   0.561423
  0.990209   0.553783
   1.00979    0.55143
   1.02937   0.553813
   1.04896   0.560961
   1.06854   0.570883
   1.08812   0.585233
    1.1077   0.605441
   1.12729   0.629697
   1.14687   0.655827
   1.16645   0.685372
   1.18603   0.721687
   1.20562   0.760471
    1.2252   0.804496
   1.24478   0.851562
   1.26436   0.902768
   1.28395   0.956421
   1.30353    1.01235
   1.32311    1.07101
   1.34269    1.13583
   1.36228    1.20593
   1.38186    1.27681
   1.40144    1.35364
   1.42102    1.43738
   1.44061    1.52106
   1.46019    1.60943
   1.47977     1.7014
   1.49935      1.797
   1.51894    1.89709
   1.53852    1.99915
    1.5581    2.10546
   1.57768    2.22045
   1.59727    2.34452
   1.61685    2.47351
   1.63643    2.61613
   1.65601    2.76056
    1.6756     2.9052
   1.69518    3.13691
   1.71314    3.52294
   1.72902    3.87766
   1.74403    4.17485
   1.75821     4.4902
    1.7716    4.81886
   1.78426    5.16224
   1.79621     5.5292
   1.80751    5.91947
   1.81818    6.33573
   1.82826    6.77874
   1.83779    7.25178
   1.84679     7.7651
   1.85529    8.31701
   1.86332    8.90348
   1.87091    9.53138
   1.87808    10.2119
   1.88485    10.9434
   1.89125    11.7317
   1.89729    12.5832
     1.903     13.507
    1.9084    14.5079
    1.9135    15.5982
   1.91831    16.7851
   1.92286    18.0724
   1.92716    19.4644
   1.93122    20.9704
   1.93506    22.6065
   1.93868    24.3846
   1.94211    26.3187
   1.94534     28.427
    1.9484    30.7347
   1.95129    33.2491
   1.95401    35.9878
   1.95659    38.9701
   1.95903    42.2071
   1.96133    45.7197
    1.9635     49.537
   1.96555    53.6716
   1.96749    58.1237
   1.96933    62.9003
   1.97106    68.0078
   1.97269    73.4442
   1.97424    79.2005
    1.9757    85.2625
   1.97708    91.6072
   1.97838    98.1936
   1.97961    104.962
   1.98077    111.842
   1.98187    118.753
   1.98291     125.61
   1.98389     132.32
   1.98482     138.79
   1.98569    144.938
   1.98652    150.705
    1.9873    156.073
   1.98804    161.082
   1.98874    165.837
    1.9894    170.521
   1.99002    175.381
   1.99061    180.717
   1.99116    186.848
   1.99169    194.079
   1.99218    202.662
   1.99265    212.756
    1.9931    224.549
   1.99355    238.496
   1.99399    254.876
   1.99444    273.595
   1.99488    294.297
   1.99533    316.317
   1.99577    338.698
   1.99622     360.27
   1.99666    379.806
   1.99711    396.232
   1.99755    408.851
     1.998    417.508
   1.99844     422.64
   1.99889    425.209
   1.99933    426.564
   1.99978    428.364
         2    429.953
