         0  0.0664897
 0.0002225  0.0664897
 0.0006675   0.598639
 0.0011125    1.66246
 0.0015575    3.25194
 0.0020025    5.35052
 0.0024475    7.92717
 0.0028925    10.9342
 0.0033375    14.3074
 0.0037825    17.9684
 0.0042275     21.829
 0.0046725    25.7969
 0.0051175     29.781
 0.0055625    33.6972
 0.0060075    37.4718
 0.0064525    41.0441
 0.0068975    44.3677
 0.0073476    47.4465
0.00781612    50.3295
0.00831203    53.0073
0.00883694    55.4254
0.00939255    57.5358
0.00998065    59.2996
 0.0106031    60.6886
  0.011262    61.6862
 0.0119594    62.2878
 0.0126977    62.5004
  0.013479    62.3408
 0.0143061    61.8342
 0.0151815     61.012
 0.0161082    59.9096
  0.017089    58.5646
 0.0181271    57.0147
  0.019226    55.2966
 0.0203891     53.445
 0.0216203    51.4915
 0.0229234    49.4648
 0.0243028    47.3905
 0.0257628     45.291
 0.0273082    43.1862
  0.028944    41.0933
 0.0306754    39.0274
 0.0325081     37.001
 0.0344479    35.0249
 0.0365012    33.1081
 0.0386746    31.2581
  0.040975    29.4808
   0.04341    27.7807
 0.0459873    26.1616
 0.0487154    24.6256
  0.051603    23.1727
 0.0546595    21.8009
 0.0578947    20.5091
 0.0613191    19.2962
 0.0649437    18.1583
 0.0687803      17.09
 0.0728413    16.0868
 0.0771397    15.1466
 0.0816895     14.266
 0.0865054    13.4403
 0.0916029    12.6666
 0.0969985     11.942
   0.10271    11.2636
  0.108755    10.6266
  0.115153    10.0291
  0.121926    9.46779
  0.129095     8.9401
  0.136683    8.44387
  0.144715    7.97847
  0.153216    7.54305
  0.162214    7.13447
  0.171739    6.74985
  0.181821    6.38728
  0.192492    6.04497
  0.203788    5.72123
  0.215744    5.41402
  0.228399    5.12138
  0.241794    4.84221
  0.255972    4.58025
   0.27098    4.33416
  0.286865    4.07875
  0.304824    3.84013
  0.324407    3.58513
  0.343989    3.36822
  0.363571    3.16503
  0.383154    2.97522
  0.402736    2.80082
  0.422319    2.64022
  0.441901     2.4904
  0.461484    2.35178
  0.481066    2.21974
  0.500648    2.09335
  0.520231    1.97454
  0.539813    1.86299
  0.559396    1.75521
  0.578978    1.65496
   0.59856    1.55839
  0.618143    1.46603
  0.637725    1.37815
  0.657308    1.29724
   0.67689    1.22028
  0.696473    1.14767
  0.716055    1.07911
  0.735637    1.01532
   0.75522   0.954689
  0.774802   0.896062
  0.794385   0.841011
  0.813967   0.789018
  0.833549    0.74056
  0.853132   0.697153
  0.872714   0.658223
  0.892297   0.624902
  0.911879   0.596685
  0.931462   0.573826
  0.951044   0.555857
  0.970626    0.54336
  0.990209   0.535896
   1.00979   0.534076
   1.02937   0.538169
   1.04896   0.548042
   1.06854   0.563375
   1.08812   0.584108
    1.1077   0.610082
   1.12729   0.640924
   1.14687   0.676265
   1.16645   0.716315
   1.18603   0.760674
   1.20562   0.809343
    1.2252   0.862815
   1.24478   0.920893
   1.26436   0.983666
   1.28395    1.05052
   1.30353     1.1218
   1.32311    1.19777
   1.34269    1.27926
   1.36228    1.36354
   1.38186    1.45207
   1.40144    1.54604
   1.42102     1.6456
   1.44061    1.75048
   1.46019    1.85881
   1.47977    1.97318
   1.49935    2.09434
   1.51894    2.22142
   1.53852    2.35509
    1.5581    2.49507
   1.57768    2.64577
   1.59727    2.81163
   1.61685    2.99146
   1.63643    3.18733
   1.65601     3.4005
    1.6756    3.62336
   1.69518    3.88744
   1.71314    4.14173
   1.72902    4.41025
   1.74403     4.6741
   1.75821    4.94902
    1.7716    5.23533
   1.78426    5.53522
   1.79621    5.85195
   1.80751    6.17972
   1.81818    6.52507
   1.82826    6.89161
   1.83779    7.27898
   1.84679     7.6889
   1.85529    8.12379
   1.86332    8.58507
   1.87091    9.07383
   1.87808    9.59177
   1.88485    10.1425
   1.89125    10.7278
   1.89729    11.3512
     1.903    12.0161
    1.9084    12.7265
    1.9135    13.4851
   1.91831     14.295
   1.92286    15.1602
   1.92716    16.0845
   1.93122    17.0704
   1.93506    18.1209
   1.93868    19.2402
   1.94211    20.4325
   1.94534    21.7014
    1.9484    23.0496
   1.95129    24.4792
   1.95401     25.991
   1.95659    27.5841
   1.95903    29.2568
   1.96133    31.0051
    1.9635    32.8239
   1.96555    34.7075
   1.96749    36.6493
   1.96933    38.6407
   1.97106    40.6711
   1.97269    42.7279
   1.97424    44.7962
    1.9757    46.8587
   1.97708    48.8959
   1.97838    50.8852
   1.97961    52.8014
   1.98077    54.6161
   1.98187    56.2978
   1.98291    57.8122
   1.98389    59.1229
   1.98482    60.1927
   1.98569    60.9848
   1.98652    61.4645
    1.9873    61.6013
   1.98804    61.3709
   1.98874    60.7572
    1.9894    59.7541
   1.99002    58.3666
   1.99061    56.6117
   1.99116    54.5177
   1.99169    52.1233
   1.99218     49.476
   1.99265    46.6295
    1.9931    43.5929
   1.99355    40.3179
   1.99399    36.8007
   1.99444     33.087
   1.99488    29.2364
   1.99533    25.3211
   1.99577    21.4236
   1.99622    17.6328
   1.99666     14.039
   1.99711    10.7284
   1.99755    7.77765
     1.998    5.24947
   1.99844    3.19048
   1.99889    1.63103
   1.99933    0.58732
   1.99978  0.0652325
         2  0.0652325
