         0 1.04057e-22
  0.000445 2.5976e-22
  0.001335 2.1701e-21
  0.002225 7.38653e-21
  0.003115 2.05868e-20
  0.004005 4.34499e-20
  0.004895 2.81893e-22
  0.005785 8.54351e-22
  0.006675 3.60931e-20
0.00756867 9.77799e-20
0.00852095 -6.70514e-20
0.00958982 1.73277e-20
 0.0107896 2.18645e-19
 0.0121362 -2.18705e-19
 0.0136477 -2.75752e-19
 0.0153442  1.164e-20
 0.0172484 3.17212e-19
 0.0193858 2.49982e-19
 0.0217849 3.85837e-19
 0.0244777 6.33001e-19
 0.0275001 -9.4369e-21
 0.0308926 1.09027e-19
 0.0347005 1.1792e-18
 0.0389746 5.38909e-19
 0.0437719 -8.11504e-19
 0.0491566 -3.90521e-19
 0.0552005 8.94528e-19
 0.0619844 -2.46046e-18
 0.0695988 4.30107e-18
 0.0781455 -1.8105e-18
 0.0877386 5.50608e-18
 0.0985062 2.51542e-18
  0.110592 -2.98289e-18
  0.124158 6.9051e-18
  0.139384 1.57131e-18
  0.156474 -1.17249e-17
  0.175657 2.51799e-18
  0.197189 -6.5517e-18
  0.221357 -4.19872e-18
  0.248483 -5.16698e-18
  0.278931 -8.52998e-18
  0.314615 -1.42385e-17
   0.35378 3.84838e-18
  0.392945 -1.36427e-17
   0.43211 -4.92471e-18
  0.471275 5.30374e-19
   0.51044 4.0115e-19
  0.549604 -8.8866e-19
  0.588769 -2.15927e-18
  0.627934 1.32793e-19
  0.667099 3.51393e-18
  0.706264 3.47274e-19
  0.745429 4.13891e-18
  0.784593 -1.71883e-18
  0.823758 -1.24581e-18
  0.862923 -3.39243e-19
  0.902088 7.59809e-19
  0.941253 1.00267e-18
  0.980418 1.97443e-18
   1.01958 2.99136e-19
   1.05875 1.37217e-19
   1.09791 -3.29067e-18
   1.13708 1.77601e-19
   1.17624 -2.29677e-18
   1.21541 -3.79016e-18
   1.25457 2.43267e-18
   1.29374 -1.07827e-18
    1.3329 -2.21611e-18
   1.37207 2.85431e-19
   1.41123 1.55615e-18
    1.4504 -3.44152e-18
   1.48956 -2.35253e-18
   1.52873 -3.07959e-18
   1.56789 -5.80053e-18
   1.60706 -2.67231e-18
   1.64622 -6.02927e-18
   1.68539 2.97432e-18
   1.72107 8.24037e-19
   1.75152 -6.36713e-19
   1.77865 3.37882e-18
   1.80281 -1.58068e-18
   1.82434 5.50119e-18
   1.84353 6.85025e-18
   1.86062 -2.96707e-19
   1.87584 -2.46655e-18
   1.88941 -2.8646e-18
    1.9015 1.16487e-19
   1.91226 -5.23574e-19
   1.92186 1.73646e-20
    1.9304 -4.5386e-18
   1.93802 1.96209e-18
    1.9448 -2.83857e-19
   1.95084 1.87734e-18
   1.95623 3.46586e-18
   1.96103 9.15064e-19
    1.9653 -1.87362e-18
   1.96911 7.07683e-19
    1.9725 6.59129e-19
   1.97552 1.5731e-18
   1.97822 -1.30928e-18
   1.98061 1.51977e-18
   1.98275 -3.92134e-20
   1.98466 -7.42327e-19
   1.98635 2.92789e-19
   1.98786 6.27671e-19
   1.98921 1.33303e-20
   1.99041 -2.52776e-19
   1.99148 -1.10596e-19
   1.99243 -1.23491e-19
   1.99333 -1.32254e-20
   1.99421 2.0191e-19
    1.9951 -1.73377e-21
     1.996  2.212e-19
   1.99689 -6.88432e-20
   1.99777 8.85732e-20
   1.99867 -1.63029e-20
   1.99956 -9.3951e-21
         2 -9.38236e-21
