         0    11.0724
  0.000445    11.0724
  0.001335    11.0624
  0.002225    11.0522
  0.003115    11.0415
  0.004005    11.0303
  0.004895    11.0182
  0.005785    11.0052
  0.006675     10.991
0.00756867    10.9753
0.00852095    10.9569
0.00958982    10.9338
 0.0107896    10.9045
 0.0121362    10.8669
 0.0136477    10.8182
 0.0153442    10.7544
 0.0172484    10.6707
 0.0193858    10.5605
 0.0217849     10.416
 0.0244777    10.2276
 0.0275001    9.98481
 0.0308926    9.67653
 0.0347005    9.29283
 0.0389746    8.82658
 0.0437719    8.27564
 0.0491566    7.64481
 0.0552005    6.94696
 0.0619844    6.20275
 0.0695988    5.43865
 0.0781455    4.68353
 0.0877386    3.96473
 0.0985062    3.30456
  0.110592    2.71833
  0.124158    2.21364
  0.139384    1.79126
  0.156474    1.44684
  0.175657    1.17275
  0.197189   0.959698
  0.221357   0.797891
  0.248483   0.677179
  0.278931    0.58551
  0.314615   0.512791
   0.35378   0.457971
  0.392945   0.417932
   0.43211   0.385455
  0.471275   0.357063
   0.51044   0.330715
  0.549604   0.305573
  0.588769   0.281519
  0.627934   0.258587
  0.667099   0.236261
  0.706264   0.213903
  0.745429   0.190371
  0.784593   0.164934
  0.823758   0.137929
  0.862923   0.109755
  0.902088  0.0807483
  0.941253  0.0509903
  0.980418  0.0199007
   1.01958 -0.0127752
   1.05875 -0.0460936
   1.09791 -0.0786822
   1.13708   -0.10948
   1.17624  -0.138174
   1.21541  -0.165029
   1.25457  -0.190059
   1.29374  -0.213445
    1.3329  -0.235986
   1.37207  -0.258135
   1.41123  -0.279771
    1.4504  -0.301353
   1.48956  -0.324242
   1.52873  -0.349682
   1.56789  -0.378495
   1.60706  -0.412225
   1.64622  -0.452079
   1.68539  -0.504457
   1.72107  -0.575687
   1.75152  -0.668218
   1.77865  -0.790978
   1.80281   -0.95624
   1.82434   -1.17508
   1.84353   -1.45696
   1.86062   -1.80983
   1.87584   -2.24037
   1.88941   -2.75231
    1.9015   -3.34403
   1.91226    -4.0071
   1.92186   -4.72578
    1.9304   -5.47775
   1.93802   -6.23626
    1.9448   -6.97338
   1.95084   -7.66371
   1.95623   -8.28747
   1.96103   -8.83237
    1.9653   -9.29384
   1.96911   -9.67402
    1.9725   -9.97983
   1.97552    -10.221
   1.97822   -10.4083
   1.98061   -10.5522
   1.98275   -10.6619
   1.98466   -10.7454
   1.98635   -10.8089
   1.98786   -10.8576
   1.98921   -10.8952
   1.99041   -10.9244
   1.99148   -10.9475
   1.99243   -10.9659
   1.99333   -10.9815
   1.99421   -10.9957
    1.9951   -11.0087
     1.996   -11.0208
   1.99689   -11.0321
   1.99777   -11.0427
   1.99867   -11.0529
   1.99956   -11.0629
         2   -11.0629
