         0 -7.86417e-20
  0.000445 5.1317e-19
  0.001335 2.12965e-18
  0.002225 -2.13331e-18
  0.003115 3.41758e-18
  0.004005 -4.63969e-19
  0.004895 1.40672e-18
  0.005785 1.29135e-17
  0.006675 -8.80684e-19
0.00756867 9.68066e-18
0.00852095 3.65374e-18
0.00958982 1.11218e-17
 0.0107896 3.01995e-18
 0.0121362 4.87416e-18
 0.0136477 1.31622e-17
 0.0153442 1.21392e-17
 0.0172484 -9.63785e-18
 0.0193858 2.91084e-17
 0.0217849 3.6435e-17
 0.0244777 8.30835e-18
 0.0275001 3.19531e-17
 0.0308926 1.59567e-17
 0.0347005 -3.25812e-17
 0.0389746 3.28348e-18
 0.0437719 1.16249e-17
 0.0491566 1.07636e-17
 0.0552005 2.28528e-17
 0.0619844 1.00036e-16
 0.0695988 3.65702e-17
 0.0781455 4.30411e-17
 0.0877386 -2.87775e-17
 0.0985062 -2.3625e-17
  0.110592 1.19571e-18
  0.124158 2.98461e-17
  0.139384 3.45018e-17
  0.156474 2.62179e-17
  0.175657 1.43544e-17
  0.197189 3.70544e-17
  0.221357 6.60093e-17
  0.248483 1.70529e-17
  0.278931 -7.02077e-18
  0.314615 -3.30995e-17
   0.35378 -3.89774e-17
  0.392945 -5.20278e-18
   0.43211 3.40665e-17
  0.471275 -4.67055e-17
   0.51044 -2.81067e-17
  0.549604 8.1974e-18
  0.588769 -3.9423e-17
  0.627934 -3.05323e-17
  0.667099 3.88518e-17
  0.706264 1.93115e-17
  0.745429 -4.65659e-17
  0.784593 -3.74354e-17
  0.823758 -7.52835e-18
  0.862923 1.09941e-17
  0.902088 -5.31422e-18
  0.941253 5.51274e-18
  0.980418 -1.26341e-17
   1.01958 -4.19827e-17
   1.05875 2.40166e-17
   1.09791 -7.37095e-18
   1.13708 2.0599e-18
   1.17624 -1.62124e-17
   1.21541 6.74738e-18
   1.25457 -4.24157e-18
   1.29374 4.53186e-18
    1.3329 -1.28632e-17
   1.37207 -1.80438e-17
   1.41123 -6.65547e-18
    1.4504 -1.62352e-18
   1.48956 2.00794e-17
   1.52873 -4.01648e-17
   1.56789 -5.39332e-18
   1.60706 9.63395e-17
   1.64622 -8.02552e-18
   1.68539 2.93206e-17
   1.72107 -2.4972e-17
   1.75152 -3.35319e-18
   1.77865 -4.50394e-17
   1.80281 -7.97765e-18
   1.82434 -3.36117e-17
   1.84353 -1.2859e-17
   1.86062 2.59502e-17
   1.87584 -3.642e-17
   1.88941 2.7852e-17
    1.9015 -5.98005e-17
   1.91226 -2.56065e-17
   1.92186 8.51569e-18
    1.9304 -7.20386e-18
   1.93802 3.69253e-18
    1.9448 5.67109e-17
   1.95084 2.05804e-17
   1.95623 -1.15057e-18
   1.96103 -1.53348e-17
    1.9653 -1.83674e-17
   1.96911 -5.13714e-18
    1.9725 4.2781e-17
   1.97552 2.96737e-17
   1.97822 -1.46134e-17
   1.98061 3.64165e-17
   1.98275 -4.50853e-17
   1.98466 -4.98134e-17
   1.98635 2.60995e-17
   1.98786 -3.1484e-17
   1.98921 1.98213e-17
   1.99041 -3.57433e-17
   1.99148 1.91713e-17
   1.99243 -8.2317e-18
   1.99333 2.56303e-18
   1.99421 -2.5942e-18
    1.9951 -1.42784e-17
     1.996 -4.26779e-17
   1.99689 -1.24488e-17
   1.99777 2.46152e-17
   1.99867 9.44473e-19
   1.99956 -1.62722e-18
         2 -1.95372e-18
