         0 2.44658e-20
  0.000445 2.73784e-20
  0.001335 4.06543e-20
  0.002225 -3.23936e-19
  0.003115 2.34828e-19
  0.004005 -5.06831e-19
  0.004895 -3.0741e-19
  0.005785 7.82523e-19
  0.006675 -6.24657e-19
0.00756867 5.00379e-19
0.00852095 -3.95289e-19
0.00958982 -2.69259e-19
 0.0107896 -9.94899e-19
 0.0121362 -7.95037e-19
 0.0136477 -1.10811e-18
 0.0153442 4.3784e-19
 0.0172484 1.38882e-19
 0.0193858 -1.40576e-18
 0.0217849 -4.50681e-20
 0.0244777 -4.22751e-18
 0.0275001 1.29529e-18
 0.0308926 1.4386e-18
 0.0347005 -1.38834e-17
 0.0389746 8.14635e-19
 0.0437719 1.6415e-18
 0.0491566 -6.72934e-19
 0.0552005 -5.19224e-18
 0.0619844 4.0867e-18
 0.0695988 1.93727e-18
 0.0781455 1.00539e-17
 0.0877386 -1.49214e-17
 0.0985062 1.23908e-18
  0.110592 4.75643e-18
  0.124158 6.95826e-18
  0.139384 1.60942e-17
  0.156474 2.76119e-18
  0.175657 3.75084e-18
  0.197189 -4.45366e-18
  0.221357 1.75164e-18
  0.248483 4.02673e-19
  0.278931 -3.56031e-17
  0.314615 6.9511e-18
   0.35378 -4.05856e-18
  0.392945 1.61436e-18
   0.43211 3.24506e-18
  0.471275 1.01917e-18
   0.51044 2.0276e-17
  0.549604 -1.4943e-17
  0.588769 1.27803e-17
  0.627934 2.6662e-18
  0.667099 -2.31358e-17
  0.706264 -7.3504e-18
  0.745429 4.48029e-18
  0.784593 2.78746e-18
  0.823758 -1.21685e-17
  0.862923 -1.53355e-17
  0.902088 -8.86391e-18
  0.941253 1.79392e-17
  0.980418 1.86058e-18
   1.01958 2.6145e-17
   1.05875 4.01577e-18
   1.09791 -2.06263e-17
   1.13708 -1.17664e-17
   1.17624 -4.42093e-18
   1.21541 2.50766e-17
   1.25457 -5.69327e-18
   1.29374 -2.12637e-17
    1.3329 2.68533e-17
   1.37207 -1.60517e-17
   1.41123 1.18093e-17
    1.4504 1.4459e-17
   1.48956 -3.55944e-17
   1.52873 2.95061e-17
   1.56789 3.84881e-18
   1.60706 -4.63602e-17
   1.64622 3.49935e-17
   1.68539 -1.27977e-18
   1.72107 -1.52635e-17
   1.75152 8.18436e-18
   1.77865 3.15336e-18
   1.80281 -2.55458e-18
   1.82434 -3.30663e-18
   1.84353 3.12346e-19
   1.86062 2.5053e-18
   1.87584 6.47833e-18
   1.88941 -2.35683e-18
    1.9015 -2.81424e-19
   1.91226 5.90377e-18
   1.92186 1.80978e-17
    1.9304 -7.87408e-19
   1.93802 3.48721e-18
    1.9448 -1.04262e-18
   1.95084 -1.73766e-18
   1.95623 6.30329e-19
   1.96103 2.56174e-18
    1.9653 -5.17851e-18
   1.96911 1.74373e-18
    1.9725 -3.14403e-18
   1.97552 1.78933e-18
   1.97822 -1.19679e-19
   1.98061 -9.52701e-19
   1.98275 -5.42283e-19
   1.98466 4.88463e-19
   1.98635 -7.41959e-19
   1.98786 4.85063e-19
   1.98921 7.60824e-19
   1.99041 -4.6243e-19
   1.99148 2.36515e-18
   1.99243 -2.00382e-19
   1.99333 -2.06146e-19
   1.99421 -1.73472e-21
    1.9951 -6.56203e-20
     1.996 2.00337e-19
   1.99689 9.51062e-21
   1.99777 -8.20925e-20
   1.99867 8.88287e-20
   1.99956 1.69136e-22
         2 -3.64925e-21
