         0 9.32915e-07
  0.000445 9.32915e-07
  0.001335 8.55768e-07
  0.002225 6.83278e-07
  0.003115 4.93653e-07
  0.004005 3.17018e-07
  0.004895 1.16088e-07
  0.005785 2.32469e-07
  0.006675 1.60379e-06
0.00756867 3.9278e-06
0.00852095 5.57151e-06
0.00958982 6.69852e-06
 0.0107896 8.28062e-06
 0.0121362 1.01942e-05
 0.0136477 1.20672e-05
 0.0153442 1.35425e-05
 0.0172484 1.41774e-05
 0.0193858 1.34031e-05
 0.0217849 1.05586e-05
 0.0244777 4.95198e-06
 0.0275001 -4.04441e-06
 0.0308926 -1.68284e-05
 0.0347005 -3.35515e-05
 0.0389746 -5.48588e-05
 0.0437719 -8.27986e-05
 0.0491566 -0.000120311
 0.0552005 -0.000169338
 0.0619844 -0.000227286
 0.0695988 -0.000284934
 0.0781455 -0.000328909
 0.0877386 -0.000346283
 0.0985062 -0.000327683
  0.110592 -0.000270464
  0.124158 -0.0001765
  0.139384 -6.27655e-05
  0.156474 6.44689e-05
  0.175657 0.000144718
  0.197189 0.000272025
  0.221357 7.40881e-05
  0.248483 0.000157362
  0.278931 0.000438726
  0.314615 -8.84497e-05
   0.35378 -1.05354e-05
  0.392945 1.69432e-05
   0.43211 -0.000143642
  0.471275 -8.14724e-06
   0.51044 -5.78372e-05
  0.549604 1.82043e-05
  0.588769 -9.5679e-07
  0.627934 6.78745e-06
  0.667099 -6.91603e-06
  0.706264 3.11415e-05
  0.745429 3.09257e-05
  0.784593 -1.65208e-05
  0.823758 7.79199e-07
  0.862923 1.23655e-05
  0.902088 4.14075e-06
  0.941253 1.42507e-05
  0.980418 1.99356e-05
   1.01958 9.99408e-06
   1.05875 8.47564e-06
   1.09791 1.31464e-05
   1.13708 1.2105e-06
   1.17624 -9.07612e-06
   1.21541 1.34853e-05
   1.25457 1.92389e-05
   1.29374 1.36119e-05
    1.3329 7.04901e-07
   1.37207 -1.66693e-06
   1.41123 -1.08238e-05
    1.4504 -6.60591e-06
   1.48956 -3.30416e-05
   1.52873 2.62345e-05
   1.56789 -0.000130683
   1.60706 6.22671e-05
   1.64622 -1.33276e-05
   1.68539 -0.000177501
   1.72107 0.00041603
   1.75152 0.000217367
   1.77865 0.000100582
   1.80281 0.000260893
   1.82434  0.0001177
   1.84353 3.57796e-05
   1.86062 -8.60153e-05
   1.87584 -0.000181663
   1.88941 -0.000252718
    1.9015 -0.000299439
   1.91226 -0.000321071
   1.92186 -0.000312667
    1.9304 -0.000276947
   1.93802 -0.000225053
    1.9448 -0.000170645
   1.95084 -0.000122764
   1.95623 -8.47701e-05
   1.96103 -5.61732e-05
    1.9653 -3.45269e-05
   1.96911 -1.76724e-05
    1.9725 -4.72864e-06
   1.97552 4.43645e-06
   1.97822 1.01441e-05
   1.98061 1.30731e-05
   1.98275 1.39319e-05
   1.98466 1.33666e-05
   1.98635 1.19474e-05
   1.98786 1.01181e-05
   1.98921 8.23551e-06
   1.99041  6.674e-06
   1.99148 5.56155e-06
   1.99243 3.92587e-06
   1.99333 1.60162e-06
   1.99421 2.29133e-07
    1.9951 1.13751e-07
     1.996 3.15667e-07
   1.99689 4.93424e-07
   1.99777 6.84392e-07
   1.99867 8.58417e-07
   1.99956 9.36618e-07
         2 9.36618e-07
