         0 1.72019e-21
  0.000445 7.87063e-22
  0.001335 -6.15447e-21
  0.002225 1.66084e-20
  0.003115 -9.58272e-21
  0.004005 1.12724e-20
  0.004895 2.80526e-20
  0.005785 1.78731e-20
  0.006675 -1.58521e-20
0.00756867 2.46005e-20
0.00852095 3.33121e-20
0.00958982 6.52018e-20
 0.0107896 1.92598e-20
 0.0121362 5.31031e-20
 0.0136477 2.28604e-20
 0.0153442 5.06225e-20
 0.0172484 -5.1337e-20
 0.0193858 4.38148e-20
 0.0217849 3.33837e-20
 0.0244777 -2.35066e-20
 0.0275001 5.97363e-20
 0.0308926 7.91739e-20
 0.0347005 4.25441e-21
 0.0389746 -9.41955e-21
 0.0437719 4.10913e-21
 0.0491566 -2.67858e-20
 0.0552005 -5.68119e-20
 0.0619844 7.55537e-20
 0.0695988 2.09705e-20
 0.0781455 2.92184e-20
 0.0877386 -4.77157e-21
 0.0985062 1.3555e-20
  0.110592 9.40806e-20
  0.124158 1.63682e-20
  0.139384 -3.00172e-20
  0.156474 1.08198e-19
  0.175657 -1.16283e-19
  0.197189 -1.13982e-19
  0.221357 -2.93602e-21
  0.248483 -9.49219e-20
  0.278931 -6.43301e-20
  0.314615 1.10858e-19
   0.35378 -3.24595e-20
  0.392945 1.31676e-20
   0.43211 -5.56955e-21
  0.471275 -3.49872e-21
   0.51044 -2.44536e-20
  0.549604 -3.35832e-21
  0.588769 -2.70573e-20
  0.627934 -4.32846e-20
  0.667099 1.19503e-20
  0.706264 6.50088e-21
  0.745429 -1.10518e-20
  0.784593 -3.21032e-21
  0.823758 1.18059e-20
  0.862923 1.03121e-20
  0.902088 5.28982e-21
  0.941253 -1.60462e-22
  0.980418 -1.03964e-20
   1.01958 -2.62859e-20
   1.05875 -1.77682e-20
   1.09791 6.6917e-21
   1.13708 -7.3124e-21
   1.17624 -1.47003e-20
   1.21541 -3.94287e-20
   1.25457 8.30568e-21
   1.29374 5.08931e-21
    1.3329 -2.22852e-20
   1.37207 2.76168e-20
   1.41123 -2.36128e-20
    1.4504 -3.06387e-20
   1.48956 5.58771e-21
   1.52873 -7.03641e-20
   1.56789 1.27611e-21
   1.60706 1.05693e-19
   1.64622 -1.00756e-19
   1.68539 -2.8778e-20
   1.72107 -6.18581e-20
   1.75152 1.22005e-19
   1.77865 1.05798e-19
   1.80281 2.85947e-20
   1.82434 7.88833e-20
   1.84353 6.09755e-20
   1.86062 -6.59889e-20
   1.87584 1.21433e-19
   1.88941 3.42098e-20
    1.9015 -4.90721e-20
   1.91226 3.56356e-20
   1.92186 -1.00638e-19
    1.9304 2.01117e-19
   1.93802 -7.93007e-20
    1.9448 -1.54419e-19
   1.95084 5.72676e-21
   1.95623 -4.04841e-20
   1.96103 5.15863e-21
    1.9653 2.38427e-20
   1.96911 4.52909e-20
    1.9725 -5.44314e-20
   1.97552 3.82279e-20
   1.97822 -1.67299e-19
   1.98061 -1.63801e-20
   1.98275 -2.20895e-20
   1.98466 -5.4634e-20
   1.98635 -1.9392e-19
   1.98786 2.45193e-19
   1.98921 -2.28412e-19
   1.99041 2.08169e-19
   1.99148 -3.58936e-20
   1.99243 -1.74307e-20
   1.99333 9.3082e-20
   1.99421 -7.50192e-20
    1.9951 1.70634e-19
     1.996 -4.41281e-20
   1.99689 1.17284e-20
   1.99777 -9.91641e-20
   1.99867 6.18844e-20
   1.99956 1.84976e-20
         2 1.88361e-20
