         0    142.056
  0.000445    142.056
  0.001335    141.527
  0.002225    141.031
  0.003115    140.558
  0.004005    140.099
  0.004895    139.645
  0.005785    139.188
  0.006675     138.72
0.00756867    138.232
0.00852095    137.682
0.00958982     137.02
 0.0107896     136.21
 0.0121362      135.2
 0.0136477    133.923
 0.0153442     132.29
 0.0172484     130.19
 0.0193858    127.489
 0.0217849    124.033
 0.0244777    119.666
 0.0275001    114.246
 0.0308926    107.677
 0.0347005    99.9426
 0.0389746    91.1413
 0.0437719    81.5013
 0.0491566    71.3759
 0.0552005    61.2061
 0.0619844    51.4551
 0.0695988    42.5313
 0.0781455     34.722
 0.0877386    28.1599
 0.0985062    22.8282
  0.110592    18.5954
  0.124158    15.2657
  0.139384    12.6347
  0.156474    10.5283
  0.175657    8.81402
  0.197189    7.39943
  0.221357     6.2193
  0.248483    5.22686
  0.278931    4.35396
  0.314615    3.57458
   0.35378    2.98817
  0.392945    2.55519
   0.43211    2.21108
  0.471275    1.93137
   0.51044    1.69826
  0.549604     1.5001
  0.588769     1.3291
  0.627934    1.18144
  0.667099    1.05467
  0.706264   0.946041
  0.745429   0.851314
  0.784593    0.77043
  0.823758   0.704123
  0.862923   0.650987
  0.902088   0.611029
  0.941253   0.584135
  0.980418   0.569916
   1.01958   0.568589
   1.05875   0.581179
   1.09791   0.607584
   1.13708   0.646901
   1.17624   0.698683
   1.21541   0.763908
   1.25457   0.842708
   1.29374   0.935223
    1.3329    1.04277
   1.37207    1.16719
   1.41123    1.31048
    1.4504    1.47631
   1.48956    1.67275
   1.52873    1.90789
   1.56789    2.18859
   1.60706    2.53345
   1.64622    2.96464
   1.68539     3.5436
   1.72107    4.30872
   1.75152    5.17125
   1.77865    6.16401
   1.80281    7.34999
   1.82434    8.78084
   1.84353    10.5239
   1.86062    12.6711
   1.87584    15.3618
   1.88941    18.7705
    1.9015    23.0915
   1.91226    28.5069
   1.92186     35.137
    1.9304    42.9881
   1.93802    51.9181
    1.9448    61.6358
   1.95084    71.7372
   1.95623    81.7709
   1.96103    91.3109
    1.9653    100.018
   1.96911    107.673
    1.9725    114.182
   1.97552    119.562
   1.97822    123.904
   1.98061    127.345
   1.98275     130.04
   1.98466    132.136
   1.98635    133.768
   1.98786    135.044
   1.98921    136.053
   1.99041    136.863
   1.99148    137.525
   1.99243    138.074
   1.99333    138.561
   1.99421    139.028
    1.9951    139.485
     1.996    139.938
   1.99689    140.395
   1.99777    140.867
   1.99867    141.361
   1.99956    141.889
         2    141.889
