         0 2.53024e-20
  0.000445 -2.70447e-19
  0.001335 -3.81869e-19
  0.002225 -8.21506e-19
  0.003115 -2.22955e-20
  0.004005 -6.16703e-19
  0.004895 -3.55383e-18
  0.005785 -2.59098e-19
  0.006675 -2.43589e-18
0.00756867 -5.18472e-18
0.00852095 -3.44476e-18
0.00958982 -2.37551e-18
 0.0107896 -2.11239e-18
 0.0121362 -5.51115e-18
 0.0136477 -3.49437e-18
 0.0153442 1.7081e-18
 0.0172484 2.16428e-18
 0.0193858 1.97528e-18
 0.0217849 -8.27349e-18
 0.0244777 -4.12892e-18
 0.0275001 5.15778e-18
 0.0308926 -9.04839e-18
 0.0347005 -1.69607e-18
 0.0389746 -1.28623e-17
 0.0437719 -2.81098e-18
 0.0491566 1.17227e-17
 0.0552005 -1.15338e-18
 0.0619844 3.88883e-18
 0.0695988 -7.725e-18
 0.0781455 -2.25625e-18
 0.0877386 8.91023e-19
 0.0985062 5.08517e-18
  0.110592 -1.38355e-18
  0.124158 7.57054e-18
  0.139384 -4.23242e-18
  0.156474 -3.41966e-19
  0.175657 1.19665e-18
  0.197189 -3.69753e-18
  0.221357 1.11244e-18
  0.248483 -4.13159e-18
  0.278931 -2.74655e-18
  0.314615 -2.34444e-18
   0.35378 1.99552e-18
  0.392945 1.83131e-18
   0.43211 -1.32241e-18
  0.471275 -7.35956e-21
   0.51044 -9.03388e-19
  0.549604 2.8921e-18
  0.588769 9.86841e-19
  0.627934 -5.68557e-18
  0.667099 2.22331e-18
  0.706264 4.52624e-19
  0.745429 -6.58241e-19
  0.784593 4.6442e-19
  0.823758 2.12785e-18
  0.862923 3.8183e-19
  0.902088 2.53459e-18
  0.941253 -7.60702e-19
  0.980418 -1.4972e-18
   1.01958 -6.88598e-20
   1.05875 4.50332e-18
   1.09791 6.33443e-19
   1.13708 1.09986e-18
   1.17624 -5.83257e-20
   1.21541 -5.50775e-18
   1.25457 3.0516e-18
   1.29374 1.71895e-18
    1.3329 -2.1977e-18
   1.37207 -2.80865e-18
   1.41123 -1.54711e-18
    1.4504 -1.86621e-18
   1.48956 -1.37262e-18
   1.52873 2.76693e-18
   1.56789 1.06984e-18
   1.60706 3.29171e-18
   1.64622 -2.29174e-18
   1.68539 3.04947e-18
   1.72107 2.25406e-18
   1.75152 1.02404e-18
   1.77865 -3.90061e-18
   1.80281 4.05486e-18
   1.82434 1.34791e-18
   1.84353 -8.90468e-19
   1.86062 -4.41798e-18
   1.87584 2.28376e-18
   1.88941 7.1291e-18
    1.9015 4.00547e-18
   1.91226 -5.57579e-18
   1.92186 -6.14377e-18
    1.9304 4.44139e-18
   1.93802 -9.56301e-19
    1.9448 5.64673e-18
   1.95084 8.41454e-18
   1.95623 8.3453e-18
   1.96103 -7.68368e-18
    1.9653 -2.82645e-18
   1.96911 -1.10686e-18
    1.9725 -8.15768e-18
   1.97552 4.52763e-20
   1.97822 -2.12459e-18
   1.98061 -2.79034e-18
   1.98275 2.21975e-18
   1.98466 -6.4929e-19
   1.98635 -1.14804e-19
   1.98786 3.03473e-18
   1.98921 -3.78617e-18
   1.99041 -1.42775e-18
   1.99148 -2.02567e-18
   1.99243 4.5006e-18
   1.99333 -1.73464e-18
   1.99421 -5.08104e-18
    1.9951 -1.57637e-18
     1.996 -2.19476e-18
   1.99689 -3.18147e-18
   1.99777 -2.13905e-18
   1.99867 -2.35387e-18
   1.99956 -2.17591e-18
         2 -2.08254e-18
