         0 -1.37276e-23
  0.000445 -2.1594e-23
  0.001335 2.02953e-22
  0.002225 1.80435e-22
  0.003115 -1.80858e-22
  0.004005 -2.31203e-21
  0.004895 8.60382e-22
  0.005785 -1.07743e-23
  0.006675 3.24231e-21
0.00756867 -6.23416e-21
0.00852095 -9.31004e-21
0.00958982 -9.905e-21
 0.0107896 -5.61508e-21
 0.0121362 3.48381e-21
 0.0136477 3.91614e-21
 0.0153442 -7.38396e-21
 0.0172484 -2.1065e-20
 0.0193858 -2.93439e-21
 0.0217849 1.42367e-20
 0.0244777 -6.03467e-21
 0.0275001 -3.098e-20
 0.0308926 -1.19815e-20
 0.0347005 -1.85984e-20
 0.0389746 -2.21622e-20
 0.0437719 -8.84492e-21
 0.0491566 1.04918e-20
 0.0552005 -4.65996e-20
 0.0619844 3.73844e-20
 0.0695988 3.46529e-20
 0.0781455 -2.37081e-20
 0.0877386 3.82783e-20
 0.0985062 -6.87238e-20
  0.110592 7.48858e-21
  0.124158 6.7703e-21
  0.139384 -7.6387e-20
  0.156474 6.30778e-20
  0.175657 -7.42657e-20
  0.197189 1.36141e-19
  0.221357 9.36751e-21
  0.248483 -4.88585e-20
  0.278931 -4.08094e-21
  0.314615 3.64205e-20
   0.35378 -3.95533e-20
  0.392945 -2.06822e-20
   0.43211 -6.5205e-20
  0.471275 -2.65071e-20
   0.51044 2.88419e-20
  0.549604 2.9849e-20
  0.588769 -8.3283e-21
  0.627934 -6.37077e-21
  0.667099 1.98886e-20
  0.706264 -1.50189e-20
  0.745429 -8.33779e-21
  0.784593 -7.04921e-21
  0.823758 1.75931e-20
  0.862923 -5.4267e-21
  0.902088 -2.10183e-20
  0.941253 -2.99641e-20
  0.980418 -1.00104e-20
   1.01958 -2.88685e-20
   1.05875 1.23481e-20
   1.09791 -1.97858e-20
   1.13708 9.41359e-22
   1.17624 -6.27699e-21
   1.21541 -6.84565e-21
   1.25457 -2.30252e-20
   1.29374 1.93845e-20
    1.3329 -1.20892e-20
   1.37207 -2.5598e-21
   1.41123 3.04601e-20
    1.4504 -2.57558e-20
   1.48956 2.30306e-20
   1.52873  1.558e-20
   1.56789 1.91492e-20
   1.60706 1.60527e-20
   1.64622  6.075e-20
   1.68539 -3.38249e-20
   1.72107 4.80616e-20
   1.75152 -5.25838e-22
   1.77865 -2.73232e-21
   1.80281 1.95254e-20
   1.82434 3.1508e-20
   1.84353 1.00893e-19
   1.86062 -1.21504e-19
   1.87584 6.40536e-20
   1.88941 -1.37836e-19
    1.9015 1.2358e-19
   1.91226 -7.70347e-20
   1.92186 9.04788e-20
    1.9304 -8.73108e-20
   1.93802 6.55877e-20
    1.9448 -9.18341e-20
   1.95084 5.67471e-21
   1.95623 -4.61133e-20
   1.96103 4.52763e-21
    1.9653 -4.49575e-20
   1.96911 4.32987e-20
    1.9725 -4.64472e-21
   1.97552 4.32521e-20
   1.97822 3.69713e-22
   1.98061 -3.29511e-20
   1.98275 -4.69026e-21
   1.98466 6.03337e-20
   1.98635 -3.7702e-20
   1.98786 -6.73723e-21
   1.98921 4.30889e-21
   1.99041 -1.99412e-20
   1.99148 2.89425e-20
   1.99243 2.39473e-21
   1.99333 1.12311e-20
   1.99421  -2.77e-21
    1.9951 3.59616e-22
     1.996 7.84691e-22
   1.99689 -4.56076e-22
   1.99777 -2.30457e-21
   1.99867 5.83225e-22
   1.99956 -5.37122e-22
         2 -5.37506e-22
