         0          0
  0.000445 3.93302e-12
  0.001335 7.33736e-11
  0.002225 3.17231e-10
  0.003115 8.11082e-10
  0.004005 1.59636e-09
  0.004895 2.69856e-09
  0.005785 4.13102e-09
  0.006675 5.89593e-09
0.00756867 8.04409e-09
0.00852095  1.151e-08
0.00958982 1.63654e-08
 0.0107896 2.31297e-08
 0.0121362 3.24896e-08
 0.0136477 4.53688e-08
 0.0153442 6.30411e-08
 0.0172484 8.73732e-08
 0.0193858 1.20853e-07
 0.0217849 1.67449e-07
 0.0244777 2.3241e-07
 0.0275001 3.22126e-07
 0.0308926 4.44931e-07
 0.0347005 6.13319e-07
 0.0389746 8.42579e-07
 0.0437719 1.16243e-06
 0.0491566 1.59522e-06
 0.0552005 2.16909e-06
 0.0619844 2.9337e-06
 0.0695988 3.9487e-06
 0.0781455 5.27193e-06
 0.0877386 6.85312e-06
 0.0985062 8.73237e-06
  0.110592 1.08884e-05
  0.124158 1.33182e-05
  0.139384 1.57101e-05
  0.156474 1.80617e-05
  0.175657 2.06386e-05
  0.197189 2.32076e-05
  0.221357 2.54406e-05
  0.248483 2.76341e-05
  0.278931 2.97108e-05
  0.314615 3.34496e-05
   0.35378 3.25191e-05
  0.392945 3.1669e-05
   0.43211 3.01881e-05
  0.471275 2.91336e-05
   0.51044 2.78869e-05
  0.549604 2.59604e-05
  0.588769 2.48046e-05
  0.627934 2.40447e-05
  0.667099 2.31897e-05
  0.706264 2.23233e-05
  0.745429 2.15079e-05
  0.784593 2.04353e-05
  0.823758 1.94511e-05
  0.862923 1.87912e-05
  0.902088 1.81364e-05
  0.941253 1.79135e-05
  0.980418 1.77813e-05
   1.01958  1.781e-05
   1.05875 1.77474e-05
   1.09791 1.79073e-05
   1.13708 1.80164e-05
   1.17624 1.84449e-05
   1.21541 1.92177e-05
   1.25457 1.99562e-05
   1.29374 2.06646e-05
    1.3329 2.14396e-05
   1.37207 2.24963e-05
   1.41123 2.37078e-05
    1.4504 2.49611e-05
   1.48956 2.60057e-05
   1.52873 2.69523e-05
   1.56789 2.80739e-05
   1.60706 2.95761e-05
   1.64622 3.09348e-05
   1.68539 3.22105e-05
   1.72107 2.93308e-05
   1.75152 2.74598e-05
   1.77865 2.53343e-05
   1.80281 2.29756e-05
   1.82434 2.06891e-05
   1.84353 1.85384e-05
   1.86062 1.61804e-05
   1.87584 1.38693e-05
   1.88941 1.15177e-05
    1.9015 9.42066e-06
   1.91226 7.54832e-06
   1.92186 5.90872e-06
    1.9304 4.49679e-06
   1.93802 3.35631e-06
    1.9448 2.45433e-06
   1.95084 1.77545e-06
   1.95623 1.27556e-06
   1.96103 9.15785e-07
    1.9653 6.60079e-07
   1.96911 4.79446e-07
    1.9725 3.49776e-07
   1.97552 2.56106e-07
   1.97822 1.87703e-07
   1.98061 1.37373e-07
   1.98275 1.00209e-07
   1.98466 7.27535e-08
   1.98635 5.25434e-08
   1.98786 3.77182e-08
   1.98921 2.69082e-08
   1.99041 1.90621e-08
   1.99148 1.34018e-08
   1.99243 9.35051e-09
   1.99333 6.83926e-09
   1.99421 4.77752e-09
    1.9951 3.10842e-09
     1.996 1.82908e-09
   1.99689 9.23258e-10
   1.99777 3.58697e-10
   1.99867 8.22826e-11
   1.99956 4.0052e-12
         2          0
