         0          0
  0.000445 3.75034e-12
  0.001335 7.25365e-11
  0.002225 3.14754e-10
  0.003115 8.08536e-10
  0.004005 1.60112e-09
  0.004895 2.72228e-09
  0.005785 4.18927e-09
  0.006675 6.00949e-09
0.00756867 8.23822e-09
0.00852095 1.18447e-08
0.00958982 1.69147e-08
 0.0107896 2.39913e-08
 0.0121362 3.38036e-08
 0.0136477 4.73288e-08
 0.0153442 6.58817e-08
 0.0172484 9.12462e-08
 0.0193858 1.25873e-07
 0.0217849 1.73187e-07
 0.0244777 2.38053e-07
 0.0275001 3.27491e-07
 0.0308926 4.51742e-07
 0.0347005 6.25583e-07
 0.0389746 8.69625e-07
 0.0437719 1.2113e-06
 0.0491566 1.68526e-06
 0.0552005 2.33203e-06
 0.0619844 3.19392e-06
 0.0695988 4.30879e-06
 0.0781455 5.70063e-06
 0.0877386 7.37168e-06
 0.0985062 9.29945e-06
  0.110592 1.14371e-05
  0.124158 1.37217e-05
  0.139384 1.60938e-05
  0.156474 1.8501e-05
  0.175657 2.0905e-05
  0.197189 2.32908e-05
  0.221357 2.5628e-05
  0.248483 2.78969e-05
  0.278931 3.00116e-05
  0.314615 3.36315e-05
   0.35378 3.25846e-05
  0.392945 3.13412e-05
   0.43211 3.00447e-05
  0.471275 2.87772e-05
   0.51044 2.75462e-05
  0.549604 2.63426e-05
  0.588769 2.51829e-05
  0.627934 2.40682e-05
  0.667099 2.30156e-05
  0.706264 2.20595e-05
  0.745429 2.11757e-05
  0.784593 2.03822e-05
  0.823758 1.96922e-05
  0.862923 1.9122e-05
  0.902088 1.86814e-05
  0.941253 1.83798e-05
  0.980418 1.82064e-05
   1.01958 1.82008e-05
   1.05875 1.83507e-05
   1.09791 1.86325e-05
   1.13708 1.90609e-05
   1.17624 1.96169e-05
   1.21541 2.02927e-05
   1.25457 2.10816e-05
   1.29374 2.19635e-05
    1.3329 2.29327e-05
   1.37207 2.39708e-05
   1.41123 2.5058e-05
    1.4504 2.62067e-05
   1.48956 2.74093e-05
   1.52873 2.86535e-05
   1.56789 2.99179e-05
   1.60706 3.1184e-05
   1.64622 3.2397e-05
   1.68539 3.34167e-05
   1.72107 2.97797e-05
   1.75152 2.76534e-05
   1.77865 2.53757e-05
   1.80281 2.30286e-05
   1.82434 2.06416e-05
   1.84353 1.82353e-05
   1.86062 1.58406e-05
   1.87584 1.34902e-05
   1.88941 1.12325e-05
    1.9015 9.12731e-06
   1.91226 7.23403e-06
   1.92186 5.59867e-06
    1.9304 4.23938e-06
   1.93802 3.14992e-06
    1.9448 2.30562e-06
   1.95084 1.67011e-06
   1.95623 1.20288e-06
   1.96103 8.64773e-07
    1.9653 6.22437e-07
   1.96911 4.49454e-07
    1.9725 3.25751e-07
   1.97552 2.36719e-07
   1.97822 1.72175e-07
   1.98061 1.25125e-07
   1.98275 9.07058e-08
   1.98466 6.54988e-08
   1.98635 4.70613e-08
   1.98786 3.36189e-08
   1.98921 2.38649e-08
   1.99041 1.68288e-08
   1.99148 1.17866e-08
   1.99243 8.19898e-09
   1.99333 5.9817e-09
   1.99421 4.17036e-09
    1.9951 2.71024e-09
     1.996 1.59409e-09
   1.99689 8.04919e-10
   1.99777 3.13258e-10
   1.99867 7.21517e-11
   1.99956 3.74024e-12
         2          0
