         0 -0.00578381
  0.000445 -0.00578381
  0.001335 -0.00578381
  0.002225 -0.00578381
  0.003115 -0.00578382
  0.004005 -0.00578385
  0.004895 -0.0057839
  0.005785 -0.00578398
  0.006675 -0.0057841
0.00756867 -0.00578428
0.00852095 -0.00578453
0.00958982 -0.00578491
 0.0107896 -0.00578549
 0.0121362 -0.00578634
 0.0136477 -0.00578761
 0.0153442 -0.00578947
 0.0172484 -0.00579217
 0.0193858 -0.00579604
 0.0217849 -0.00580153
 0.0244777 -0.00580924
 0.0275001 -0.00581989
 0.0308926 -0.00583439
 0.0347005 -0.00585389
 0.0389746 -0.00587972
 0.0437719 -0.00591345
 0.0491566 -0.00595684
 0.0552005 -0.00601193
 0.0619844 -0.00608104
 0.0695988 -0.00616679
 0.0781455 -0.00627192
 0.0877386 -0.00639897
 0.0985062 -0.00654979
  0.110592 -0.00672553
  0.124158 -0.00692516
  0.139384 -0.00714457
  0.156474 -0.00737526
  0.175657 -0.00760715
  0.197189 -0.00782947
  0.221357 -0.00803458
  0.248483 -0.00820907
  0.278931 -0.00832531
  0.314615 -0.00838084
   0.35378 -0.00838984
  0.392945 -0.00833538
   0.43211 -0.00823572
  0.471275 -0.00815129
   0.51044 -0.00805649
  0.549604 -0.00793079
  0.588769  -0.007841
  0.627934 -0.0077978
  0.667099 -0.00774193
  0.706264 -0.00765912
  0.745429 -0.00756762
  0.784593 -0.00747065
  0.823758 -0.00736745
  0.862923 -0.00727767
  0.902088 -0.00722599
  0.941253 -0.00721066
  0.980418 -0.00722162
   1.01958 -0.00724773
   1.05875 -0.00728175
   1.09791 -0.00732144
   1.13708 -0.00736861
   1.17624  -0.007417
   1.21541 -0.00746011
   1.25457 -0.00749756
   1.29374 -0.00752374
    1.3329 -0.00754176
   1.37207 -0.00757365
   1.41123 -0.00762887
    1.4504 -0.00771867
   1.48956 -0.00783838
   1.52873 -0.00795123
   1.56789 -0.00804098
   1.60706 -0.00810724
   1.64622 -0.00817196
   1.68539 -0.0081999
   1.72107 -0.00819209
   1.75152 -0.00816035
   1.77865 -0.00806811
   1.80281 -0.00791949
   1.82434 -0.00773383
   1.84353 -0.0075237
   1.86062 -0.00729787
   1.87584 -0.00706772
   1.88941 -0.00684826
    1.9015 -0.00665083
   1.91226 -0.00647949
   1.92186 -0.00633431
    1.9304 -0.00621395
   1.93802 -0.00611604
    1.9448 -0.00603756
   1.95084 -0.00597542
   1.95623 -0.00592676
   1.96103 -0.00588904
    1.9653 -0.00586014
   1.96911 -0.00583829
    1.9725  -0.005822
   1.97552 -0.00581003
   1.97822 -0.00580135
   1.98061 -0.00579514
   1.98275 -0.00579075
   1.98466 -0.00578769
   1.98635 -0.00578558
   1.98786 -0.00578414
   1.98921 -0.00578316
   1.99041 -0.00578251
   1.99148 -0.00578207
   1.99243 -0.00578178
   1.99333 -0.00578159
   1.99421 -0.00578145
    1.9951 -0.00578135
     1.996 -0.0057813
   1.99689 -0.00578127
   1.99777 -0.00578126
   1.99867 -0.00578125
   1.99956 -0.00578125
         2 -0.00578125
