         0 0.00185111
  0.000445 0.00185111
  0.001335 0.00185111
  0.002225 0.00185111
  0.003115 0.00185109
  0.004005 0.00185107
  0.004895 0.00185102
  0.005785 0.00185093
  0.006675 0.00185081
0.00756867 0.00185063
0.00852095 0.00185037
0.00958982 0.00184998
 0.0107896 0.00184938
 0.0121362 0.00184849
 0.0136477 0.00184718
 0.0153442 0.00184525
 0.0172484 0.00184243
 0.0193858 0.00183838
 0.0217849 0.00183261
 0.0244777 0.00182449
 0.0275001 0.00181318
 0.0308926 0.00179767
 0.0347005 0.00177664
 0.0389746 0.00174853
 0.0437719  0.0017115
 0.0491566 0.00166336
 0.0552005 0.00160171
 0.0619844 0.00152393
 0.0695988 0.00142737
 0.0781455 0.00130961
 0.0877386 0.00116887
 0.0985062 0.00100448
  0.110592 0.000817425
  0.124158 0.000610829
  0.139384 0.000390284
  0.156474 0.000163959
  0.175657 -5.76358e-05
  0.197189 -0.000262549
  0.221357 -0.000438036
  0.248483 -0.000574078
  0.278931 -0.000657591
  0.314615 -0.000680389
   0.35378 -0.000650582
  0.392945 -0.000586568
   0.43211 -0.00050169
  0.471275 -0.000410527
   0.51044 -0.000317707
  0.549604 -0.000226911
  0.588769 -0.000138237
  0.627934 -5.27713e-05
  0.667099 2.87147e-05
  0.706264 0.000105272
  0.745429 0.000176617
  0.784593 0.000241295
  0.823758 0.000296462
  0.862923 0.000341107
  0.902088 0.000374957
  0.941253 0.000397845
  0.980418 0.000410015
   1.01958 0.000411429
   1.05875 0.000401808
   1.09791 0.000381133
   1.13708 0.000349503
   1.17624 0.000306915
   1.21541 0.000253949
   1.25457 0.000192254
   1.29374 0.000122914
    1.3329 4.63754e-05
   1.37207 -3.70448e-05
   1.41123 -0.000126322
    1.4504 -0.000219949
   1.48956 -0.000315198
   1.52873 -0.000408726
   1.56789 -0.000495392
   1.60706 -0.000571851
   1.64622 -0.000624177
   1.68539 -0.000643363
   1.72107 -0.000616904
   1.75152 -0.000533727
   1.77865 -0.000398411
   1.80281 -0.000224281
   1.82434 -2.19221e-05
   1.84353 0.000195801
   1.86062 0.000417192
   1.87584 0.000632379
   1.88941 0.000833859
    1.9015  0.0010165
   1.91226 0.00117737
   1.92186 0.00131546
    1.9304 0.00143131
   1.93802 0.00152654
    1.9448 0.00160342
   1.95084 0.00166445
   1.95623 0.00171218
   1.96103 0.00174895
    1.9653 0.00177688
   1.96911  0.0017978
    1.9725 0.00181326
   1.97552 0.00182452
   1.97822 0.00183262
   1.98061 0.00183839
   1.98275 0.00184243
   1.98466 0.00184524
   1.98635 0.00184718
   1.98786 0.00184849
   1.98921 0.00184938
   1.99041 0.00184997
   1.99148 0.00185037
   1.99243 0.00185063
   1.99333 0.00185081
   1.99421 0.00185093
    1.9951 0.00185102
     1.996 0.00185107
   1.99689  0.0018511
   1.99777 0.00185111
   1.99867 0.00185111
   1.99956 0.00185111
         2 0.00185111
