         0 8.24191e-05
  0.000445 8.24191e-05
  0.001335 8.23855e-05
  0.002225 8.23495e-05
  0.003115 8.23195e-05
  0.004005 8.22952e-05
  0.004895 8.22758e-05
  0.005785 8.2261e-05
  0.006675 8.22507e-05
0.00756867 8.22448e-05
0.00852095 8.22435e-05
0.00958982 8.2248e-05
 0.0107896 8.22605e-05
 0.0121362 8.22841e-05
 0.0136477 8.2322e-05
 0.0153442 8.23789e-05
 0.0172484 8.24602e-05
 0.0193858 8.25724e-05
 0.0217849 8.27237e-05
 0.0244777 8.29233e-05
 0.0275001 8.31823e-05
 0.0308926 8.35127e-05
 0.0347005 8.39281e-05
 0.0389746 8.44426e-05
 0.0437719 8.50702e-05
 0.0491566 8.58238e-05
 0.0552005 8.67134e-05
 0.0619844 8.77438e-05
 0.0695988 8.89111e-05
 0.0781455 9.01987e-05
 0.0877386 9.1574e-05
 0.0985062 9.29847e-05
  0.110592 9.43578e-05
  0.124158   9.56e-05
  0.139384 9.66039e-05
  0.156474 9.72604e-05
  0.175657 9.74742e-05
  0.197189 9.71703e-05
  0.221357 9.62885e-05
  0.248483 9.47983e-05
  0.278931 9.27227e-05
  0.314615 9.00273e-05
   0.35378 8.66476e-05
  0.392945 8.33656e-05
   0.43211 8.02791e-05
  0.471275 7.7396e-05
   0.51044 7.46878e-05
  0.549604 7.21332e-05
  0.588769 6.97311e-05
  0.627934 6.7487e-05
  0.667099 6.54155e-05
  0.706264 6.35088e-05
  0.745429 6.17664e-05
  0.784593 6.02074e-05
  0.823758 5.88657e-05
  0.862923 5.77641e-05
  0.902088 5.6914e-05
  0.941253 5.63255e-05
  0.980418 5.60089e-05
   1.01958 5.59697e-05
   1.05875 5.62125e-05
   1.09791 5.67395e-05
   1.13708 5.75372e-05
   1.17624 5.8583e-05
   1.21541  5.985e-05
   1.25457 6.13094e-05
   1.29374 6.29441e-05
    1.3329 6.47461e-05
   1.37207 6.67167e-05
   1.41123 6.88499e-05
    1.4504 7.11452e-05
   1.48956 7.36125e-05
   1.52873 7.62671e-05
   1.56789 7.91322e-05
   1.60706 8.22013e-05
   1.64622 8.54286e-05
   1.68539 8.87589e-05
   1.72107 9.14449e-05
   1.75152 9.35438e-05
   1.77865 9.50539e-05
   1.80281 9.59236e-05
   1.82434 9.62186e-05
   1.84353 9.60247e-05
   1.86062 9.54216e-05
   1.87584 9.44977e-05
   1.88941 9.33495e-05
    1.9015 9.20691e-05
   1.91226 9.07387e-05
   1.92186 8.94271e-05
    1.9304 8.81867e-05
   1.93802 8.70527e-05
    1.9448 8.60446e-05
   1.95084 8.51691e-05
   1.95623 8.4424e-05
   1.96103 8.38012e-05
    1.9653 8.3289e-05
   1.96911 8.28745e-05
    1.9725 8.2544e-05
   1.97552 8.22846e-05
   1.97822 8.20843e-05
   1.98061 8.19324e-05
   1.98275 8.18195e-05
   1.98466 8.17377e-05
   1.98635 8.16803e-05
   1.98786 8.16419e-05
   1.98921 8.1618e-05
   1.99041 8.16051e-05
   1.99148 8.16003e-05
   1.99243 8.16015e-05
   1.99333 8.16072e-05
   1.99421 8.16173e-05
    1.9951 8.1632e-05
     1.996 8.16512e-05
   1.99689 8.16753e-05
   1.99777 8.17051e-05
   1.99867 8.17409e-05
   1.99956 8.17744e-05
         2 8.17744e-05
