         0          0
  0.000445 -1.04084e-07
  0.001335 -1.98958e-06
  0.002225 -8.95913e-06
  0.003115 -2.45059e-05
  0.004005 -5.21836e-05
  0.004895 -9.55652e-05
  0.005785 -0.000158191
  0.006675 -0.000243511
0.00756867 -0.000355348
0.00852095 -0.000507025
0.00958982 -0.000721199
 0.0107896 -0.00102183
 0.0121362 -0.00144054
 0.0136477 -0.00201777
 0.0153442 -0.00280311
 0.0172484 -0.00385369
 0.0193858 -0.00522944
 0.0217849 -0.00698372
 0.0244777 -0.0091485
 0.0275001 -0.0117144
 0.0308926 -0.0146092
 0.0347005 -0.0176805
 0.0389746 -0.0206922
 0.0437719 -0.0233437
 0.0491566 -0.0253148
 0.0552005 -0.0263316
 0.0619844 -0.0262341
 0.0695988 -0.0250214
 0.0781455 -0.0228548
 0.0877386 -0.0200128
 0.0985062 -0.0168178
  0.110592 -0.0135685
  0.124158 -0.0104979
  0.139384 -0.00775025
  0.156474 -0.00538807
  0.175657 -0.00342129
  0.197189 -0.00182046
  0.221357 -0.000539529
  0.248483 0.000459245
  0.278931 0.00118386
  0.314615 0.00180205
   0.35378 0.00225955
  0.392945 0.00259637
   0.43211  0.0028501
  0.471275 0.00304091
   0.51044 0.00320094
  0.549604 0.00333672
  0.588769 0.00346461
  0.627934 0.00357886
  0.667099 0.00367603
  0.706264 0.00375407
  0.745429 0.00380174
  0.784593 0.00384058
  0.823758 0.00388013
  0.862923 0.00391424
  0.902088 0.00394205
  0.941253 0.00395575
  0.980418 0.00394827
   1.01958  0.0039329
   1.05875 0.00392186
   1.09791 0.00391206
   1.13708 0.00389984
   1.17624 0.00387486
   1.21541 0.00383833
   1.25457  0.0037958
   1.29374 0.00373851
    1.3329 0.00366386
   1.37207 0.00358198
   1.41123  0.0034908
    1.4504 0.00337625
   1.48956  0.0032302
   1.52873 0.00305536
   1.56789  0.0028472
   1.60706 0.00258626
   1.64622 0.00227632
   1.68539 0.00182761
   1.72107 0.00118322
   1.75152 0.000452216
   1.77865 -0.000548924
   1.80281 -0.0018548
   1.82434 -0.00349857
   1.84353 -0.00549929
   1.86062 -0.00788147
   1.87584 -0.0106434
   1.88941 -0.0137121
    1.9015 -0.0169349
   1.91226 -0.0200777
   1.92186 -0.0228446
    1.9304 -0.0249259
   1.93802 -0.0260629
    1.9448 -0.0261114
   1.95084 -0.0250795
   1.95623  -0.023125
   1.96103  -0.020512
    1.9653 -0.0175479
   1.96911 -0.0145224
    1.9725 -0.0116647
   1.97552 -0.00912487
   1.97822 -0.00697622
   1.98061 -0.00523052
   1.98275 -0.00385847
   1.98466 -0.0028088
   1.98635 -0.00202304
   1.98786 -0.00144489
   1.98921 -0.0010252
   1.99041 -0.000723703
   1.99148 -0.000508837
   1.99243 -0.000356635
   1.99333 -0.000244394
   1.99421 -0.00015876
    1.9951 -9.59033e-05
     1.996 -5.23638e-05
   1.99689 -2.45879e-05
   1.99777 -8.98796e-06
   1.99867 -1.9957e-06
   1.99956 -1.04388e-07
         2          0
