         0          0
  0.000445 -3.08064e-05
  0.001335 -8.55555e-05
  0.002225 -0.000133804
  0.003115 -0.000176226
  0.004005 -0.000213347
  0.004895 -0.000245638
  0.005785 -0.000273573
  0.006675 -0.000297591
0.00756867 -0.000318178
0.00852095 -0.000336723
0.00958982 -0.000353765
 0.0107896 -0.000368761
 0.0121362 -0.000381165
 0.0136477 -0.000390466
 0.0153442 -0.000396225
 0.0172484 -0.000398118
 0.0193858 -0.000395961
 0.0217849 -0.00038972
 0.0244777 -0.000379484
 0.0275001 -0.000365389
 0.0308926 -0.000347504
 0.0347005 -0.000325693
 0.0389746 -0.000299494
 0.0437719 -0.000268091
 0.0491566 -0.000230492
 0.0552005 -0.000185975
 0.0619844 -0.000134724
 0.0695988 -7.8418e-05
 0.0781455 -2.04805e-05
 0.0877386 3.42338e-05
 0.0985062 8.02948e-05
  0.110592 0.000112895
  0.124158 0.000128908
  0.139384 0.000127677
  0.156474 0.000112318
  0.175657 8.92281e-05
  0.197189 6.47626e-05
  0.221357 4.32116e-05
  0.248483 2.48907e-05
  0.278931 1.6321e-05
  0.314615 3.76498e-05
   0.35378 2.5727e-05
  0.392945 2.63396e-05
   0.43211 3.09201e-05
  0.471275 3.39795e-05
   0.51044 3.39717e-05
  0.549604 3.33101e-05
  0.588769 3.27865e-05
  0.627934  3.091e-05
  0.667099 2.97713e-05
  0.706264 2.85444e-05
  0.745429 2.69902e-05
  0.784593 2.44886e-05
  0.823758 2.05425e-05
  0.862923 1.67524e-05
  0.902088 1.43131e-05
  0.941253 1.31899e-05
  0.980418 1.29292e-05
   1.01958 1.36847e-05
   1.05875 1.52221e-05
   1.09791 1.67111e-05
   1.13708 1.82879e-05
   1.17624 1.99572e-05
   1.21541 2.23314e-05
   1.25457 2.56973e-05
   1.29374 2.83521e-05
    1.3329 2.92589e-05
   1.37207 3.08028e-05
   1.41123 3.22269e-05
    1.4504 3.15866e-05
   1.48956 2.88186e-05
   1.52873 2.62943e-05
   1.56789 2.45934e-05
   1.60706 2.21253e-05
   1.64622 2.43294e-05
   1.68539 4.04106e-05
   1.72107 2.35381e-05
   1.75152 3.33374e-05
   1.77865 5.06513e-05
   1.80281 6.76699e-05
   1.82434 8.72974e-05
   1.84353 0.000106872
   1.86062 0.000120186
   1.87584 0.000121821
   1.88941 0.000108976
    1.9015 8.12779e-05
   1.91226 4.03241e-05
   1.92186 -1.03941e-05
    1.9304 -6.60767e-05
   1.93802 -0.00012175
    1.9448 -0.000173495
   1.95084 -0.000219097
   1.95623 -0.000257967
   1.96103 -0.000290585
    1.9653 -0.00031784
   1.96911 -0.000340529
    1.9725 -0.000359136
   1.97552 -0.000373832
   1.97822 -0.000384582
   1.98061 -0.000391277
   1.98275 -0.000393848
   1.98466 -0.000392339
   1.98635 -0.000386938
   1.98786 -0.000377973
   1.98921 -0.000365882
   1.99041 -0.000351177
   1.99148 -0.000334403
   1.99243 -0.000316103
   1.99333 -0.000295752
   1.99421 -0.000271972
    1.9951 -0.00024428
     1.996 -0.000212234
   1.99689 -0.00017536
   1.99777 -0.000133187
   1.99867 -8.51864e-05
   1.99956 -3.0684e-05
         2          0
