         0          0
  0.000445  -0.143061
  0.001335  -0.414903
  0.002225  -0.683251
  0.003115  -0.959823
  0.004005   -1.25594
  0.004895   -1.58327
  0.005785   -1.95355
  0.006675   -2.37779
0.00756867   -2.86998
0.00852095   -3.47739
0.00958982   -4.27406
 0.0107896   -5.33006
 0.0121362   -6.73689
 0.0136477   -8.61141
 0.0153442    -11.097
 0.0172484   -14.3589
 0.0193858   -18.5705
 0.0217849   -23.8863
 0.0244777   -30.3985
 0.0275001     -38.08
 0.0308926   -46.7213
 0.0347005     -55.88
 0.0389746   -64.8709
 0.0437719   -72.8193
 0.0491566   -78.7923
 0.0552005   -81.9892
 0.0619844   -81.9407
 0.0695988   -78.6447
 0.0781455   -72.5758
 0.0877386   -64.5573
 0.0985062   -55.5436
  0.110592   -46.4209
  0.124158   -37.8789
  0.139384   -30.3322
  0.156474   -23.9426
  0.175657   -18.7088
  0.197189   -14.5196
  0.221357   -11.2308
  0.248483   -8.73064
  0.278931   -6.98916
  0.314615   -5.35848
   0.35378   -4.29711
  0.392945   -3.60353
   0.43211   -3.10028
  0.471275   -2.74311
   0.51044   -2.45686
  0.549604   -2.22743
  0.588769   -2.01627
  0.627934    -1.8433
  0.667099   -1.70635
  0.706264   -1.60704
  0.745429   -1.57225
  0.784593   -1.54941
  0.823758   -1.52322
  0.862923   -1.50343
  0.902088   -1.48432
  0.941253   -1.48501
  0.980418   -1.52392
   1.01958   -1.56493
   1.05875   -1.57421
   1.09791   -1.55861
   1.13708   -1.52979
   1.17624    -1.5216
   1.21541   -1.53421
   1.25457   -1.55199
   1.29374   -1.60329
    1.3329   -1.70041
   1.37207   -1.80983
   1.41123    -1.9359
    1.4504   -2.12103
   1.48956   -2.38449
   1.52873   -2.71165
   1.56789   -3.10913
   1.60706   -3.62394
   1.64622   -4.23216
   1.68539    -5.2581
   1.72107   -6.95714
   1.75152   -8.73418
   1.77865   -11.2642
   1.80281   -14.6497
   1.82434   -18.9869
   1.84353   -24.3448
   1.86062    -30.816
   1.87584   -38.4178
   1.88941   -46.9542
    1.9015   -55.9864
   1.91226   -64.8292
   1.92186    -72.611
    1.9304   -78.4167
   1.93802    -81.481
    1.9448   -81.3779
   1.95084    -78.131
   1.95623   -72.2018
   1.96103   -64.3619
    1.9653   -55.5069
   1.96911   -46.4786
    1.9725   -37.9425
   1.97552   -30.3342
   1.97822   -23.8665
   1.98061   -18.5737
   1.98275   -14.3712
   1.98466   -11.1108
   1.98635   -8.62327
   1.98786   -6.74561
   1.98921   -5.33567
   1.99041   -4.27706
   1.99148   -3.47842
   1.99243    -2.8696
   1.99333   -2.37642
   1.99421   -1.95156
    1.9951   -1.58097
     1.996   -1.25361
   1.99689  -0.957721
   1.99777  -0.681579
   1.99867  -0.413817
   1.99956  -0.142679
         2          0
