         0          0
  0.000445 3.12138e-09
  0.001335 3.7919e-08
  0.002225 1.48524e-07
  0.003115 3.60396e-07
  0.004005 6.82982e-07
  0.004895 1.11784e-06
  0.005785  1.661e-06
  0.006675 2.33161e-06
0.00756867 3.63023e-06
0.00852095 5.50155e-06
0.00958982 7.62762e-06
 0.0107896 1.04731e-05
 0.0121362 1.4236e-05
 0.0136477 1.9148e-05
 0.0153442 2.54673e-05
 0.0172484 3.3458e-05
 0.0193858  4.335e-05
 0.0217849 5.52727e-05
 0.0244777 6.91684e-05
 0.0275001 8.47296e-05
 0.0308926 0.000101287
 0.0347005 0.000117667
 0.0389746 0.000132075
 0.0437719 0.000142034
 0.0491566 0.000144438
 0.0552005 0.000135949
 0.0619844 0.000113911
 0.0695988 7.7661e-05
 0.0781455 2.92392e-05
 0.0877386 -2.62226e-05
 0.0985062 -8.19369e-05
  0.110592 -0.00013059
  0.124158 -0.000166559
  0.139384 -0.000189275
  0.156474 -0.000200623
  0.175657 -0.000203247
  0.197189 -0.000199924
  0.221357 -0.000191585
  0.248483 -0.000180738
  0.278931 -0.000162164
  0.314615 -0.000171822
   0.35378 -0.000175356
  0.392945 -0.00014794
   0.43211 -0.000124314
  0.471275 -0.000106452
   0.51044 -9.26678e-05
  0.549604 -8.16071e-05
  0.588769 -7.18321e-05
  0.627934 -6.34881e-05
  0.667099 -5.61084e-05
  0.706264 -5.04385e-05
  0.745429 -4.70447e-05
  0.784593 -4.38523e-05
  0.823758 -4.05251e-05
  0.862923 -3.81566e-05
  0.902088 -3.63475e-05
  0.941253 -3.55782e-05
  0.980418 -3.61157e-05
   1.01958 -3.69393e-05
   1.05875 -3.7402e-05
   1.09791 -3.78293e-05
   1.13708 -3.83432e-05
   1.17624 -4.00029e-05
   1.21541 -4.23589e-05
   1.25457 -4.52245e-05
   1.29374 -4.98424e-05
    1.3329 -5.56544e-05
   1.37207 -6.17112e-05
   1.41123 -6.91229e-05
    1.4504 -7.81843e-05
   1.48956 -9.03372e-05
   1.52873 -0.000105315
   1.56789 -0.000123006
   1.60706 -0.000145628
   1.64622 -0.000170097
   1.68539 -0.0001664
   1.72107 -0.000160502
   1.75152 -0.000178894
   1.77865 -0.000187525
   1.80281 -0.000196821
   1.82434 -0.000202319
   1.84353 -0.000200234
   1.86062 -0.000188478
   1.87584 -0.000164861
   1.88941 -0.000127981
    1.9015 -7.94471e-05
   1.91226 -2.4521e-05
   1.92186 2.98692e-05
    1.9304 7.70463e-05
   1.93802 0.00011212
    1.9448 0.000133343
   1.95084 0.000141579
   1.95623 0.000139461
   1.96103 0.000130236
    1.9653 0.000116705
   1.96911 0.000101038
    1.9725 8.49074e-05
   1.97552 6.95272e-05
   1.97822 5.56503e-05
   1.98061 4.36681e-05
   1.98275 3.37058e-05
   1.98466 2.56585e-05
   1.98635 1.92973e-05
   1.98786 1.4353e-05
   1.98921 1.05647e-05
   1.99041 7.69871e-06
   1.99148 5.55605e-06
   1.99243 3.66774e-06
   1.99333 2.35675e-06
   1.99421 1.68002e-06
    1.9951 1.13141e-06
     1.996 6.91764e-07
   1.99689 3.65297e-07
   1.99777 1.50651e-07
   1.99867 3.84897e-08
   1.99956 3.16956e-09
         2          0
