         0          0
  0.000445 3.38727e-07
  0.001335 1.01613e-06
  0.002225 1.6934e-06
  0.003115 2.37052e-06
  0.004005 3.04745e-06
  0.004895 3.72421e-06
  0.005785 4.40082e-06
  0.006675 5.07736e-06
0.00756867 5.75678e-06
0.00852095 6.4811e-06
0.00958982 7.29509e-06
 0.0107896 8.21108e-06
 0.0121362 9.24441e-06
 0.0136477 1.04151e-05
 0.0153442 1.17511e-05
 0.0172484 1.32936e-05
 0.0193858 1.51065e-05
 0.0217849 1.72912e-05
 0.0244777 2.00103e-05
 0.0275001 2.35204e-05
 0.0308926 2.82159e-05
 0.0347005 3.46789e-05
 0.0389746 4.37309e-05
 0.0437719 5.6477e-05
 0.0491566 7.43334e-05
 0.0552005 9.90107e-05
 0.0619844 0.000132411
 0.0695988 0.000176331
 0.0781455 0.00023179
 0.0877386 0.000298006
 0.0985062 0.000371132
  0.110592 0.000443479
  0.124158 0.000504118
  0.139384 0.000540693
  0.156474 0.000541808
  0.175657 0.000499361
  0.197189 0.000404561
  0.221357 0.000247267
  0.248483 2.74716e-05
  0.278931 -0.000228677
  0.314615 -0.00046817
   0.35378 -0.000604722
  0.392945 -0.000633572
   0.43211 -0.000582661
  0.471275 -0.000475015
   0.51044 -0.000286875
  0.549604 -2.3639e-05
  0.588769 0.000228616
  0.627934 0.000382534
  0.667099 0.000437863
  0.706264 0.000424349
  0.745429 0.000362007
  0.784593 0.000268369
  0.823758 0.000138717
  0.862923 -1.48751e-05
  0.902088 -0.000143269
  0.941253 -0.000232902
  0.980418 -0.000319016
   1.01958 -0.000412781
   1.05875 -0.000493511
   1.09791 -0.000544535
   1.13708 -0.000577744
   1.17624 -0.000623712
   1.21541 -0.000695191
   1.25457 -0.000775254
   1.29374 -0.00085099
    1.3329 -0.000929947
   1.37207 -0.00102096
   1.41123 -0.00109009
    1.4504 -0.00109585
   1.48956 -0.00105629
   1.52873 -0.00100294
   1.56789 -0.000942257
   1.60706 -0.000894942
   1.64622 -0.00090993
   1.68539 -0.000939869
   1.72107 -0.000903018
   1.75152 -0.000801092
   1.77865 -0.00068797
   1.80281 -0.000625445
   1.82434 -0.000607243
   1.84353 -0.000594938
   1.86062 -0.000561533
   1.87584 -0.000505175
   1.88941 -0.000436372
    1.9015 -0.000365483
   1.91226 -0.000299819
   1.92186 -0.00024347
    1.9304 -0.000197603
   1.93802 -0.000161507
    1.9448 -0.000133624
   1.95084 -0.000112224
   1.95623 -9.56996e-05
   1.96103 -8.27062e-05
    1.9653 -7.22126e-05
   1.96911 -6.34894e-05
    1.9725 -5.60566e-05
   1.97552 -4.96121e-05
   1.97822 -4.39657e-05
   1.98061 -3.89907e-05
   1.98275 -3.45947e-05
   1.98466 -3.07045e-05
   1.98635 -2.72584e-05
   1.98786 -2.42031e-05
   1.98921 -2.14922e-05
   1.99041 -1.90851e-05
   1.99148 -1.69463e-05
   1.99243 -1.50446e-05
   1.99333 -1.32629e-05
   1.99421 -1.14908e-05
    1.9951 -9.72052e-06
     1.996 -7.95169e-06
   1.99689 -6.18387e-06
   1.99777 -4.4167e-06
   1.99867 -2.64991e-06
   1.99956 -8.83286e-07
         2          0
