         0          0
  0.000445 4.2127e-10
  0.001335 1.23932e-09
  0.002225 1.94454e-09
  0.003115 2.45555e-09
  0.004005 2.82324e-09
  0.004895 3.01985e-09
  0.005785 3.02988e-09
  0.006675 3.43364e-09
0.00756867 5.89475e-09
0.00852095 1.0753e-08
0.00958982 1.72104e-08
 0.0107896 2.60352e-08
 0.0121362 3.84316e-08
 0.0136477 5.53344e-08
 0.0153442 7.7307e-08
 0.0172484 1.04221e-07
 0.0193858 1.34617e-07
 0.0217849 1.64809e-07
 0.0244777 1.87785e-07
 0.0275001 1.91931e-07
 0.0308926 1.59836e-07
 0.0347005 6.76994e-08
 0.0389746 -1.15686e-07
 0.0437719 -4.36201e-07
 0.0491566 -9.68132e-07
 0.0552005 -1.82538e-06
 0.0619844 -3.16072e-06
 0.0695988 -5.12322e-06
 0.0781455 -7.79093e-06
 0.0877386 -1.11071e-05
 0.0985062 -1.48422e-05
  0.110592 -1.85705e-05
  0.124158 -2.17237e-05
  0.139384 -2.35593e-05
  0.156474 -2.36444e-05
  0.175657 -2.10755e-05
  0.197189 -1.77269e-05
  0.221357 -8.33703e-06
  0.248483 -1.4857e-05
  0.278931 2.04387e-06
  0.314615 1.35476e-05
   0.35378 -6.00635e-06
  0.392945 1.27223e-05
   0.43211 -4.6792e-06
  0.471275 1.47094e-06
   0.51044 -5.31737e-06
  0.549604 -3.05943e-06
  0.588769 -3.89143e-06
  0.627934 -3.13437e-06
  0.667099 -3.35977e-06
  0.706264 -3.6761e-06
  0.745429 -9.20469e-07
  0.784593 -1.2537e-06
  0.823758 -2.21454e-06
  0.862923 -1.19267e-06
  0.902088 -1.24595e-06
  0.941253 -8.68325e-07
  0.980418 -1.29691e-07
   1.01958 6.93225e-07
   1.05875 6.53144e-07
   1.09791 1.35712e-06
   1.13708 1.6829e-06
   1.17624 1.45194e-06
   1.21541 9.71972e-07
   1.25457 2.50824e-06
   1.29374 2.47896e-06
    1.3329 3.57446e-06
   1.37207 2.53417e-06
   1.41123 3.44389e-06
    1.4504 1.68635e-06
   1.48956 2.92645e-06
   1.52873 -9.01804e-07
   1.56789 4.9814e-06
   1.60706 -1.11382e-05
   1.64622 9.85879e-06
   1.68539 -1.21822e-05
   1.72107 -4.76799e-06
   1.75152 1.42401e-05
   1.77865 9.09809e-06
   1.80281 1.85408e-05
   1.82434 2.13628e-05
   1.84353 2.33643e-05
   1.86062 2.28041e-05
   1.87584 2.06838e-05
   1.88941 1.76442e-05
    1.9015 1.42437e-05
   1.91226 1.08249e-05
   1.92186 7.71071e-06
    1.9304 5.14071e-06
   1.93802 3.21283e-06
    1.9448  1.877e-06
   1.95084 1.00442e-06
   1.95623 4.59751e-07
   1.96103 1.31685e-07
    1.9653 -5.62008e-08
   1.96911 -1.51752e-07
    1.9725 -1.86529e-07
   1.97552 -1.84129e-07
   1.97822 -1.62375e-07
   1.98061 -1.33085e-07
   1.98275 -1.03296e-07
   1.98466 -7.6777e-08
   1.98635 -5.50507e-08
   1.98786 -3.82913e-08
   1.98921 -2.59729e-08
   1.99041 -1.71872e-08
   1.99148 -1.07476e-08
   1.99243 -5.89277e-09
   1.99333 -3.43209e-09
   1.99421 -3.0318e-09
    1.9951 -3.02423e-09
     1.996 -2.82933e-09
   1.99689 -2.46235e-09
   1.99777 -1.95103e-09
   1.99867 -1.24413e-09
   1.99956 -4.2305e-10
         2          0
