         0          0
  0.000445 -6.83568e-13
  0.001335 8.37089e-13
  0.002225 1.15719e-11
  0.003115 3.27427e-11
  0.004005 6.46621e-11
  0.004895 1.12686e-10
  0.005785 1.87802e-10
  0.006675 3.09938e-10
0.00756867 5.0697e-10
0.00852095 8.37916e-10
0.00958982 1.43527e-09
 0.0107896 2.51784e-09
 0.0121362 4.46014e-09
 0.0136477 7.89762e-09
 0.0153442 1.38688e-08
 0.0172484 2.40168e-08
 0.0193858 4.08339e-08
 0.0217849 6.79198e-08
 0.0244777 1.10166e-07
 0.0275001 1.73732e-07
 0.0308926 2.65619e-07
 0.0347005 3.92783e-07
 0.0389746 5.60908e-07
 0.0437719 7.73185e-07
 0.0491566 1.02935e-06
 0.0552005 1.32432e-06
 0.0619844 1.64511e-06
 0.0695988 1.96425e-06
 0.0781455 2.23059e-06
 0.0877386 2.36991e-06
 0.0985062 2.3078e-06
  0.110592 1.99955e-06
  0.124158 1.47476e-06
  0.139384 8.59973e-07
  0.156474 2.58897e-07
  0.175657 -3.66416e-07
  0.197189 -1.12874e-06
  0.221357 -1.86813e-06
  0.248483 -2.33103e-06
  0.278931 -2.43312e-06
  0.314615 -1.76236e-06
   0.35378 -8.56342e-07
  0.392945 -3.63685e-07
   0.43211 3.82603e-07
  0.471275 6.33944e-07
   0.51044 1.26989e-06
  0.549604 1.88401e-06
  0.588769 1.33863e-06
  0.627934 4.55099e-07
  0.667099 5.22844e-08
  0.706264 -2.9226e-07
  0.745429 -5.21566e-07
  0.784593 -6.35043e-07
  0.823758 -8.83005e-07
  0.862923 -9.36567e-07
  0.902088 -6.69354e-07
  0.941253 -6.87291e-07
  0.980418 -1.06387e-06
   1.01958 -1.26716e-06
   1.05875 -1.25593e-06
   1.09791 -1.2511e-06
   1.13708 -1.54649e-06
   1.17624 -2.12518e-06
   1.21541 -2.62091e-06
   1.25457 -2.97203e-06
   1.29374 -3.3639e-06
    1.3329 -3.79586e-06
   1.37207 -4.17875e-06
   1.41123 -3.73315e-06
    1.4504 -3.37926e-06
   1.48956 -3.07413e-06
   1.52873 -3.13094e-06
   1.56789 -2.95859e-06
   1.60706 -3.31182e-06
   1.64622 -3.82929e-06
   1.68539 -2.60116e-06
   1.72107 -1.04385e-06
   1.75152 -1.37835e-07
   1.77865 -3.43574e-07
   1.80281 -1.15901e-06
   1.82434 -1.39034e-06
   1.84353 -9.81215e-07
   1.86062 -2.12481e-07
   1.87584 4.66666e-07
   1.88941 9.34831e-07
    1.9015 1.19718e-06
   1.91226 1.25904e-06
   1.92186 1.16582e-06
    1.9304 9.88592e-07
   1.93802 7.83199e-07
    1.9448 5.84753e-07
   1.95084 4.13207e-07
   1.95623 2.78286e-07
   1.96103 1.81495e-07
    1.9653 1.17856e-07
   1.96911 7.91255e-08
    1.9725 5.67365e-08
   1.97552 4.37214e-08
   1.97822 3.54385e-08
   1.98061 2.93159e-08
   1.98275 2.41861e-08
   1.98466 1.96485e-08
   1.98635 1.56378e-08
   1.98786 1.21835e-08
   1.98921 9.3047e-09
   1.99041 6.98114e-09
   1.99148 5.15835e-09
   1.99243 3.76128e-09
   1.99333 2.66584e-09
   1.99421 1.7822e-09
    1.9951 1.10201e-09
     1.996 6.12327e-10
   1.99689 2.90917e-10
   1.99777 1.08107e-10
   1.99867 2.57649e-11
   1.99956 1.58966e-12
         2          0
