         0          0
  0.000445 3.4698e-12
  0.001335 5.65381e-10
  0.002225 4.38692e-09
  0.003115 1.6655e-08
  0.004005 4.42997e-08
  0.004895 9.55638e-08
  0.005785 1.79739e-07
  0.006675 3.06861e-07
0.00756867 4.88277e-07
0.00852095 7.52518e-07
0.00958982 1.15295e-06
 0.0107896 1.75549e-06
 0.0121362 2.65516e-06
 0.0136477 3.98743e-06
 0.0153442 5.94272e-06
 0.0172484 8.78491e-06
 0.0193858 1.28739e-05
 0.0217849 1.8692e-05
 0.0244777 2.68741e-05
 0.0275001 3.82402e-05
 0.0308926 5.38279e-05
 0.0347005 7.49248e-05
 0.0389746 0.000103096
 0.0437719 0.000140206
 0.0491566 0.000188425
 0.0552005 0.000250207
 0.0619844 0.000328219
 0.0695988 0.000425181
 0.0781455 0.000543591
 0.0877386 0.000685327
 0.0985062 0.000851142
  0.110592 0.00104013
  0.124158 0.00124927
  0.139384 0.00147309
  0.156474 0.00170359
  0.175657 0.00193056
  0.197189 0.00214196
  0.221357 0.00232554
  0.248483 0.00247005
  0.278931 0.00256718
  0.314615 0.00260495
   0.35378 0.00257061
  0.392945 0.00249537
   0.43211 0.00240476
  0.471275 0.00230702
   0.51044 0.00220931
  0.549604 0.00211382
  0.588769 0.00202136
  0.627934 0.00193256
  0.667099 0.00184802
  0.706264 0.00176903
  0.745429 0.00169576
  0.784593 0.00162952
  0.823758 0.00157298
  0.862923 0.00152724
  0.902088 0.00149266
  0.941253 0.00146921
  0.980418 0.00145682
   1.01958 0.00145536
   1.05875  0.0014652
   1.09791 0.00148638
   1.13708 0.00151874
   1.17624 0.00156225
   1.21541 0.00161643
   1.25457 0.00167971
   1.29374 0.00175085
    1.3329 0.00182965
   1.37207  0.0019156
   1.41123 0.00200812
    1.4504 0.00210513
   1.48956 0.00220499
   1.52873  0.0023036
   1.56789 0.00239747
   1.60706 0.00248047
   1.64622 0.00254394
   1.68539 0.00256821
   1.72107 0.00252711
   1.75152 0.00243056
   1.77865  0.0022869
   1.80281 0.00210489
   1.82434 0.00189622
   1.84353 0.00167315
   1.86062 0.00144743
   1.87584 0.00122877
   1.88941 0.00102456
    1.9015 0.000839815
   1.91226 0.00067737
   1.92186 0.00053815
    1.9304 0.000421534
   1.93802 0.000325811
    1.9448 0.00024864
   1.95084 0.000187423
   1.95623 0.000139582
   1.96103 0.000102721
    1.9653 7.47106e-05
   1.96911 5.37141e-05
    1.9725 3.81865e-05
   1.97552 2.68543e-05
   1.97822 1.86898e-05
   1.98061 1.28797e-05
   1.98275 8.79344e-06
   1.98466 5.95127e-06
   1.98635 3.99485e-06
   1.98786 2.66111e-06
   1.98921 1.76001e-06
   1.99041 1.15628e-06
   1.99148 7.5489e-07
   1.99243 4.89935e-07
   1.99333 3.07973e-07
   1.99421 1.8043e-07
    1.9951 9.59528e-08
     1.996 4.44901e-08
   1.99689 1.67304e-08
   1.99777 4.40791e-09
   1.99867 5.68277e-10
   1.99956 3.49179e-12
         2          0
