         0          0
  0.000445 3.03855e-06
  0.001335 2.72898e-05
  0.002225 7.56975e-05
  0.003115 0.000148187
  0.004005 0.000244691
  0.004895 0.000365139
  0.005785 0.000509446
  0.006675  0.0006775
0.00756867 0.000869994
0.00852095  0.0011011
0.00958982 0.00139205
 0.0107896 0.00175772
 0.0121362  0.0022162
 0.0136477 0.00278923
 0.0153442 0.00350224
 0.0172484 0.00438405
 0.0193858 0.00546565
 0.0217849 0.00677768
 0.0244777  0.0083462
 0.0275001  0.0101863
 0.0308926   0.012294
 0.0347005  0.0146369
 0.0389746  0.0171473
 0.0437719  0.0197183
 0.0491566  0.0222093
 0.0552005  0.0244593
 0.0619844  0.0263088
 0.0695988  0.0276245
 0.0781455    0.02832
 0.0877386  0.0283677
 0.0985062  0.0277992
  0.110592  0.0266962
  0.124158  0.0251754
  0.139384  0.0233686
  0.156474  0.0214034
  0.175657  0.0193914
  0.197189  0.0174219
  0.221357  0.0155595
  0.248483  0.0138475
  0.278931  0.0123076
  0.314615  0.0109276
   0.35378 0.00974399
  0.392945 0.00881589
   0.43211 0.00804016
  0.471275 0.00735686
   0.51044 0.00673147
  0.549604 0.00615332
  0.588769 0.00561863
  0.627934 0.00511877
  0.667099 0.00465429
  0.706264 0.00422786
  0.745429 0.00384287
  0.784593 0.00350061
  0.823758 0.00320193
  0.862923 0.00295295
  0.902088 0.00276014
  0.941253 0.00262831
  0.980418 0.00256309
   1.01958 0.00257011
   1.05875 0.00264827
   1.09791 0.00279138
   1.13708 0.00299459
   1.17624 0.00325169
   1.21541 0.00355264
   1.25457 0.00388924
   1.29374 0.00425891
    1.3329  0.0046616
   1.37207 0.00509709
   1.41123 0.00557412
    1.4504 0.00609868
   1.48956 0.00666962
   1.52873 0.00728972
   1.56789 0.00797266
   1.60706 0.00876065
   1.64622 0.00972577
   1.68539  0.0109546
   1.72107  0.0123566
   1.75152  0.0139046
   1.77865  0.0156325
   1.80281  0.0175199
   1.82434  0.0195207
   1.84353  0.0215726
   1.86062  0.0235825
   1.87584  0.0254266
   1.88941  0.0269696
    1.9015  0.0280782
   1.91226  0.0286366
   1.92186  0.0285657
    1.9304  0.0278385
   1.93802  0.0264884
    1.9448  0.0246072
   1.95084  0.0223312
   1.95623  0.0198205
   1.96103  0.0172349
    1.9653  0.0147135
   1.96911  0.0123612
    1.9725  0.0102451
   1.97552 0.00839688
   1.97822  0.0068207
   1.98061 0.00550161
   1.98275 0.00441369
   1.98466  0.0035264
   1.98635 0.00280874
   1.98786 0.00223185
   1.98921 0.00177021
   1.99041 0.00140198
   1.99148 0.00110897
   1.99243 0.000876221
   1.99333 0.000682349
   1.99421 0.000513088
    1.9951 0.000367745
     1.996 0.000246432
   1.99689 0.000149238
   1.99777 7.62325e-05
   1.99867 2.74819e-05
   1.99956 3.0598e-06
         2          0
