         0          0
  0.000445 2.56361e-09
  0.001335 2.26786e-08
  0.002225 6.22551e-08
  0.003115 1.20813e-07
  0.004005 1.98014e-07
  0.004895 2.93634e-07
  0.005785 4.07542e-07
  0.006675 5.39673e-07
0.00756867 6.90677e-07
0.00852095 8.71851e-07
0.00958982 1.10019e-06
 0.0107896 1.38816e-06
 0.0121362 1.75161e-06
 0.0136477 2.21072e-06
 0.0153442 2.79123e-06
 0.0172484 3.52598e-06
 0.0193858 4.4569e-06
 0.0217849 5.63731e-06
 0.0244777 7.1346e-06
 0.0275001 9.0324e-06
 0.0308926 1.14307e-05
 0.0347005 1.44407e-05
 0.0389746 1.81694e-05
 0.0437719 2.26889e-05
 0.0491566 2.79842e-05
 0.0552005 3.38797e-05
 0.0619844 3.99632e-05
 0.0695988 4.55567e-05
 0.0781455 4.97945e-05
 0.0877386 5.17935e-05
 0.0985062 5.08432e-05
  0.110592 4.6733e-05
  0.124158 4.03391e-05
  0.139384 3.33993e-05
  0.156474 2.64792e-05
  0.175657 1.91506e-05
  0.197189 1.3914e-05
  0.221357 1.43192e-05
  0.248483 1.89394e-05
  0.278931 2.23742e-05
  0.314615 1.94367e-05
   0.35378 2.05246e-05
  0.392945 3.15096e-05
   0.43211 4.56207e-05
  0.471275 5.57135e-05
   0.51044 6.02272e-05
  0.549604 6.03882e-05
  0.588769 5.50875e-05
  0.627934 4.50918e-05
  0.667099 3.01644e-05
  0.706264 1.32684e-05
  0.745429 -8.93396e-07
  0.784593 -1.03817e-05
  0.823758 -1.57941e-05
  0.862923 -1.85765e-05
  0.902088 -2.18142e-05
  0.941253 -2.7155e-05
  0.980418 -3.18604e-05
   1.01958 -3.3554e-05
   1.05875 -3.30643e-05
   1.09791 -3.05351e-05
   1.13708 -2.66341e-05
   1.17624 -2.36806e-05
   1.21541 -2.37242e-05
   1.25457 -2.6694e-05
   1.29374 -3.28894e-05
    1.3329 -4.11335e-05
   1.37207 -4.90046e-05
   1.41123 -5.48702e-05
    1.4504 -6.26433e-05
   1.48956 -7.05336e-05
   1.52873 -7.00362e-05
   1.56789 -5.99846e-05
   1.60706 -4.32916e-05
   1.64622 -2.50549e-05
   1.68539 -7.18292e-06
   1.72107 1.03273e-06
   1.75152 -1.73689e-06
   1.77865 -1.45629e-05
   1.80281 -2.31232e-05
   1.82434 -2.1787e-05
   1.84353 -1.75868e-05
   1.86062 -1.64642e-05
   1.87584 -1.86626e-05
   1.88941 -2.24014e-05
    1.9015 -2.7117e-05
   1.91226 -3.22706e-05
   1.92186 -3.64956e-05
    1.9304 -3.86209e-05
   1.93802 -3.84046e-05
    1.9448 -3.63533e-05
   1.95084 -3.32466e-05
   1.95623 -2.97615e-05
   1.96103 -2.63094e-05
    1.9653 -2.30619e-05
   1.96911 -2.00563e-05
    1.9725 -1.72881e-05
   1.97552 -1.4755e-05
   1.97822 -1.24643e-05
   1.98061 -1.04249e-05
   1.98275 -8.63994e-06
   1.98466 -7.10283e-06
   1.98635 -5.79844e-06
   1.98786 -4.70545e-06
   1.98921 -3.79924e-06
   1.99041 -3.05444e-06
   1.99148 -2.44671e-06
   1.99243 -1.95372e-06
   1.99333 -1.53575e-06
   1.99421 -1.16491e-06
    1.9951 -8.41708e-07
     1.996 -5.68258e-07
   1.99689 -3.4648e-07
   1.99777 -1.7808e-07
   1.99867 -6.45607e-08
   1.99956 -7.23113e-09
         2          0
