         0          0
  0.000445 -6.97873e-10
  0.001335 -2.98749e-08
  0.002225 -1.44273e-07
  0.003115 -4.06376e-07
  0.004005 -8.77714e-07
  0.004895 -1.62069e-06
  0.005785 -2.69899e-06
  0.006675 -4.17677e-06
0.00756867 -6.12666e-06
0.00852095 -8.78466e-06
0.00958982 -1.25778e-05
 0.0107896 -1.79782e-05
 0.0121362 -2.56432e-05
 0.0136477 -3.64774e-05
 0.0153442 -5.17082e-05
 0.0172484 -7.29679e-05
 0.0193858 -0.000102373
 0.0217849 -0.000142574
 0.0244777 -0.000196752
 0.0275001 -0.000268493
 0.0308926 -0.000361515
 0.0347005 -0.000479188
 0.0389746 -0.000623871
 0.0437719 -0.000796135
 0.0491566 -0.000994049
 0.0552005 -0.00121276
 0.0619844 -0.00144461
 0.0695988 -0.00167982
 0.0781455 -0.00190783
 0.0877386 -0.00211865
 0.0985062 -0.00230418
  0.110592 -0.00245883
  0.124158 -0.0025797
  0.139384 -0.00266618
  0.156474 -0.00271926
  0.175657 -0.00274093
  0.197189 -0.00273325
  0.221357 -0.00269893
  0.248483 -0.00263809
  0.278931 -0.0025557
  0.314615 -0.00244917
   0.35378 -0.00232134
  0.392945 -0.00219025
   0.43211 -0.00205407
  0.471275 -0.00191522
   0.51044 -0.00177499
  0.549604 -0.00163398
  0.588769 -0.00149226
  0.627934 -0.00134946
  0.667099 -0.0012061
  0.706264 -0.00106222
  0.745429 -0.000918789
  0.784593 -0.000776122
  0.823758 -0.000633957
  0.862923 -0.000492172
  0.902088 -0.000350621
  0.941253 -0.00020918
  0.980418 -6.82378e-05
   1.01958 7.19529e-05
   1.05875 0.000211854
   1.09791 0.000351857
   1.13708 0.000492365
   1.17624 0.000633406
   1.21541 0.000774566
   1.25457 0.000916165
   1.29374 0.00105822
    1.3329 0.00120028
   1.37207  0.0013421
   1.41123   0.001484
    1.4504 0.00162561
   1.48956 0.00176668
   1.52873 0.00190631
   1.56789 0.00204509
   1.60706 0.00218148
   1.64622  0.0023138
   1.68539 0.00244373
   1.72107 0.00255173
   1.75152 0.00263479
   1.77865 0.00269632
   1.80281 0.00273081
   1.82434 0.00273776
   1.84353 0.00271438
   1.86062 0.00265915
   1.87584 0.00257034
   1.88941 0.00244713
    1.9015 0.00229049
   1.91226 0.00210369
   1.92186 0.00189257
    1.9304  0.0016653
   1.93802 0.00143167
    1.9448 0.00120194
   1.95084 0.000985522
   1.95623 0.000789779
   1.96103 0.000619365
    1.9653 0.000476129
   1.96911 0.00035951
    1.9725 0.000267212
   1.97552 0.000195945
   1.97822 0.000142068
   1.98061 0.000102053
   1.98275 7.27634e-05
   1.98466 5.15751e-05
   1.98635 3.63892e-05
   1.98786 2.55837e-05
   1.98921 1.79375e-05
   1.99041 1.25496e-05
   1.99148 8.76503e-06
   1.99243 6.11291e-06
   1.99333 4.1673e-06
   1.99421 2.69276e-06
    1.9951 1.61687e-06
     1.996 8.7559e-07
   1.99689 4.05365e-07
   1.99777 1.43903e-07
   1.99867 2.97956e-08
   1.99956 6.95836e-10
         2          0
