         0          0
  0.000445 8.19098e-07
  0.001335 7.02677e-06
  0.002225 1.87935e-05
  0.003115 3.5529e-05
  0.004005 5.66953e-05
  0.004895 8.18017e-05
  0.005785  0.0001104
  0.006675 0.000142082
0.00756867 0.000176622
0.00852095 0.000216088
0.00958982 0.000263158
 0.0107896 0.00031891
 0.0121362 0.000384451
 0.0136477 0.000460864
 0.0153442 0.000549162
 0.0172484 0.000650217
 0.0193858 0.000764706
 0.0217849 0.00089306
 0.0244777 0.00103546
 0.0275001 0.00119184
 0.0308926 0.00136201
 0.0347005 0.00154571
 0.0389746 0.00174271
 0.0437719 0.00195278
 0.0491566 0.00217548
 0.0552005 0.00240978
 0.0619844 0.00265354
 0.0695988 0.00290308
 0.0781455   0.003153
 0.0877386 0.00339647
 0.0985062 0.00362605
  0.110592  0.0038353
  0.124158 0.00402034
  0.139384 0.00417987
  0.156474 0.00431316
  0.175657 0.00441731
  0.197189 0.00448551
  0.221357  0.0045097
  0.248483 0.00448493
  0.278931  0.0044095
  0.314615 0.00428141
   0.35378  0.0040604
  0.392945 0.00383698
   0.43211  0.0036151
  0.471275 0.00338768
   0.51044 0.00315764
  0.549604 0.00292994
  0.588769 0.00271256
  0.627934 0.00251152
  0.667099 0.00232234
  0.706264 0.00214689
  0.745429 0.00199221
  0.784593 0.00185793
  0.823758 0.00174256
  0.862923 0.00164862
  0.902088   0.001578
  0.941253 0.00153199
  0.980418 0.00151086
   1.01958 0.00151384
   1.05875 0.00153923
   1.09791 0.00158759
   1.13708  0.0016583
   1.17624 0.00174886
   1.21541 0.00185836
   1.25457  0.0019885
   1.29374 0.00214025
    1.3329 0.00230962
   1.37207 0.00248985
   1.41123 0.00267791
    1.4504 0.00287554
   1.48956 0.00308336
   1.52873 0.00330653
   1.56789 0.00354321
   1.60706 0.00376956
   1.64622 0.00397572
   1.68539 0.00416334
   1.72107 0.00427092
   1.75152 0.00433594
   1.77865 0.00435379
   1.80281 0.00433363
   1.82434 0.00428258
   1.84353 0.00420381
   1.86062 0.00409627
   1.87584 0.00395754
   1.88941  0.0037879
    1.9015    0.00359
   1.91226 0.00336877
   1.92186 0.00313093
    1.9304 0.00288425
   1.93802 0.00263636
    1.9448 0.00239351
   1.95084 0.00215999
   1.95623 0.00193822
   1.96103  0.0017293
    1.9653 0.00153359
   1.96911 0.00135127
    1.9725 0.00118247
   1.97552 0.00102739
   1.97822 0.000886209
   1.98061 0.000758943
   1.98275 0.000645412
   1.98466 0.000545186
   1.98635 0.000457596
   1.98786 0.000381779
   1.98921 0.000316738
   1.99041 0.000261398
   1.99148 0.000214669
   1.99243 0.000175482
   1.99333 0.00014118
   1.99421 0.000109711
    1.9951   8.13e-05
     1.996 5.63539e-05
   1.99689 3.53192e-05
   1.99777 1.86847e-05
   1.99867 6.98699e-06
   1.99956 8.14594e-07
         2          0
