         0    4.13623
  0.000445       3.99
  0.001335    3.71503
  0.002225    3.46213
  0.003115     3.2288
  0.004005    3.01301
  0.004895    2.81311
  0.005785    2.62772
  0.006675    2.45568
0.00756867    2.29543
0.00852095     2.1378
0.00958982    1.97601
 0.0107896    1.81228
 0.0121362    1.64956
 0.0136477    1.49165
 0.0153442    1.34333
 0.0172484    1.21025
 0.0193858    1.09874
 0.0217849    1.01531
 0.0244777   0.965863
 0.0275001   0.954741
 0.0308926   0.983668
 0.0347005    1.05095
 0.0389746    1.15117
 0.0437719    1.27569
 0.0491566    1.41377
 0.0552005     1.5542
 0.0619844    1.68677
 0.0695988    1.80323
 0.0781455    1.89782
 0.0877386    1.96741
 0.0985062    2.01102
  0.110592    2.02803
  0.124158    2.01699
  0.139384    1.97667
  0.156474     1.9078
  0.175657    1.81296
  0.197189    1.69566
  0.221357    1.55934
  0.248483    1.40948
  0.278931    1.24397
  0.314615    1.06683
   0.35378    0.91685
  0.392945    0.79034
   0.43211   0.684849
  0.471275   0.598282
   0.51044   0.526529
  0.549604   0.465581
  0.588769   0.411718
  0.627934   0.363184
  0.667099   0.321167
  0.706264   0.285657
  0.745429   0.254593
  0.784593   0.227681
  0.823758   0.205271
  0.862923   0.186674
  0.902088   0.172176
  0.941253   0.162117
  0.980418   0.156489
   1.01958    0.15534
   1.05875   0.159176
   1.09791   0.167755
   1.13708   0.180888
   1.17624   0.198992
   1.21541   0.222092
   1.25457   0.249062
   1.29374   0.279401
    1.3329   0.314294
   1.37207    0.35473
   1.41123   0.401655
    1.4504   0.456226
   1.48956   0.519932
   1.52873   0.592899
   1.56789   0.676283
   1.60706   0.778183
   1.64622   0.901323
   1.68539    1.04857
   1.72107    1.21971
   1.75152    1.37869
   1.77865    1.52463
   1.80281    1.65617
   1.82434    1.76894
   1.84353    1.86098
   1.86062    1.93061
   1.87584    1.97679
   1.88941    1.99623
    1.9015    1.98737
   1.91226    1.95018
   1.92186    1.88574
    1.9304     1.7961
   1.93802    1.68439
    1.9448    1.55569
   1.95084    1.41777
   1.95623    1.28079
   1.96103    1.15618
    1.9653    1.05492
   1.96911   0.985942
    1.9725   0.954893
   1.97552   0.963707
   1.97822    1.01085
   1.98061    1.09211
   1.98275    1.20164
   1.98466    1.33297
   1.98635    1.47976
   1.98786    1.63633
   1.98921     1.7979
   1.99041    1.96063
   1.99148    2.12154
   1.99243    2.27841
   1.99333    2.43794
   1.99421    2.60929
    1.9951      2.794
     1.996    2.99322
   1.99689    3.20834
   1.99777    3.44101
   1.99867    3.69326
   1.99956    3.96758
         2    4.11349
