         0 -5.37081e-19
  0.000445 4.39361e-18
  0.001335 6.91201e-18
  0.002225 1.18197e-17
  0.003115 1.00699e-17
  0.004005 -5.47726e-17
  0.004895 -1.15044e-17
  0.005785 -1.00674e-17
  0.006675 -4.23689e-19
0.00756867 -4.23889e-17
0.00852095 -3.33913e-18
0.00958982 1.45087e-16
 0.0107896 5.10531e-17
 0.0121362 -8.8899e-17
 0.0136477 1.03747e-16
 0.0153442 -6.21142e-17
 0.0172484 -7.07984e-17
 0.0193858 1.33318e-17
 0.0217849 1.67622e-16
 0.0244777 1.48433e-16
 0.0275001 2.04352e-16
 0.0308926 3.50589e-17
 0.0347005 2.69293e-17
 0.0389746 2.19182e-16
 0.0437719 -3.46488e-17
 0.0491566 8.46723e-17
 0.0552005 1.80828e-16
 0.0619844 1.00825e-16
 0.0695988 -5.8224e-17
 0.0781455 -2.22196e-16
 0.0877386 -2.14451e-17
 0.0985062 -1.00053e-16
  0.110592 -1.17111e-16
  0.124158 -3.12812e-16
  0.139384 -7.92582e-16
  0.156474 -3.83886e-16
  0.175657 -2.89684e-16
  0.197189 -3.31828e-16
  0.221357 -1.54423e-16
  0.248483 1.37535e-16
  0.278931 -2.24132e-17
  0.314615 -8.00493e-17
   0.35378 1.64535e-18
  0.392945 -5.15837e-17
   0.43211 2.39866e-16
  0.471275 -7.29972e-19
   0.51044 1.74154e-16
  0.549604 1.5502e-16
  0.588769 -2.22018e-16
  0.627934 -1.08189e-16
  0.667099  -5.83e-17
  0.706264 -9.88742e-17
  0.745429 -1.72573e-17
  0.784593 -1.48759e-16
  0.823758 2.86082e-17
  0.862923 3.7457e-17
  0.902088 -5.81329e-17
  0.941253 5.71998e-17
  0.980418 -2.97917e-17
   1.01958 1.57796e-17
   1.05875 7.85516e-17
   1.09791 -5.01599e-17
   1.13708 2.73248e-17
   1.17624 -2.87592e-17
   1.21541 -2.3489e-17
   1.25457 -3.82999e-18
   1.29374 5.06151e-18
    1.3329 9.79028e-17
   1.37207 1.50111e-16
   1.41123 9.82991e-17
    1.4504 1.79008e-16
   1.48956 3.46567e-17
   1.52873 3.45413e-17
   1.56789 -6.95444e-18
   1.60706 2.04743e-16
   1.64622 -1.01998e-16
   1.68539 -4.79328e-17
   1.72107 -7.75535e-17
   1.75152 -3.36711e-16
   1.77865 -2.72364e-16
   1.80281 -4.97735e-17
   1.82434 -2.9805e-17
   1.84353 4.01993e-16
   1.86062 3.27803e-16
   1.87584 -2.73883e-16
   1.88941 2.11553e-17
    1.9015 -3.87226e-16
   1.91226 -7.92588e-16
   1.92186 -1.05946e-16
    1.9304 2.62279e-17
   1.93802 -4.65672e-16
    1.9448 1.20597e-16
   1.95084 2.49192e-16
   1.95623 1.68172e-16
   1.96103 -1.58442e-16
    1.9653 -2.54805e-16
   1.96911 -2.04379e-16
    1.9725 9.2748e-17
   1.97552 -3.72893e-16
   1.97822 -1.99374e-17
   1.98061 1.99514e-16
   1.98275 -1.78875e-16
   1.98466 2.59874e-16
   1.98635 -3.7665e-16
   1.98786 4.12059e-16
   1.98921 -4.03131e-16
   1.99041 2.48045e-16
   1.99148 -2.47455e-16
   1.99243 -7.54297e-17
   1.99333 2.28232e-16
   1.99421 -1.35977e-16
    1.9951 1.26925e-16
     1.996 1.66972e-17
   1.99689 8.15253e-17
   1.99777 1.89984e-16
   1.99867 2.75022e-17
   1.99956 1.01091e-16
         2 9.72349e-17
