         0 0.000761185
  0.000445 0.000761155
  0.001335 0.000761054
  0.002225 0.000760893
  0.003115  0.0007607
  0.004005  0.0007605
  0.004895 0.000760321
  0.005785  0.0007602
  0.006675 0.000760207
0.00756867 0.000760435
0.00852095 0.000761079
0.00958982 0.00076252
 0.0107896 0.000765424
 0.0121362 0.000770944
 0.0136477 0.000781011
 0.0153442 0.000798761
 0.0172484 0.000829104
 0.0193858 0.000879417
 0.0217849 0.000960211
 0.0244777 0.00108555
 0.0275001  0.0012727
 0.0308926 0.00154068
 0.0347005 0.00190759
 0.0389746 0.00238741
 0.0437719 0.00298653
 0.0491566 0.00369957
 0.0552005 0.00450326
 0.0619844 0.00534572
 0.0695988 0.00612845
 0.0781455  0.0066957
 0.0877386 0.00684689
 0.0985062 0.00638874
  0.110592 0.00522809
  0.124158 0.00343605
  0.139384 0.00123365
  0.156474 -0.00107375
  0.175657 -0.00330779
  0.197189 -0.00545564
  0.221357 -0.00730551
  0.248483 -0.00825767
  0.278931 -0.00756207
  0.314615  -0.005099
   0.35378 -0.00211161
  0.392945 0.000281648
   0.43211 0.00202423
  0.471275 0.00377617
   0.51044 0.00576251
  0.549604 0.00658103
  0.588769 0.00518543
  0.627934 0.00267137
  0.667099 0.000533836
  0.706264 -0.000968419
  0.745429 -0.00199132
  0.784593 -0.00285064
  0.823758 -0.00361606
  0.862923 -0.00359999
  0.902088 -0.00278345
  0.941253 -0.00224368
  0.980418 -0.00229643
   1.01958 -0.00222769
   1.05875 -0.00168203
   1.09791 -0.00107537
   1.13708 -0.00101082
   1.17624 -0.00149938
   1.21541 -0.00193465
   1.25457 -0.00198902
   1.29374 -0.00197489
    1.3329 -0.0021699
   1.37207 -0.00204452
   1.41123 -0.000956149
    1.4504 0.000431606
   1.48956 0.00118622
   1.52873 0.00145577
   1.56789 0.00137872
   1.60706 0.000412701
   1.64622 -0.00057356
   1.68539 0.000134124
   1.72107 0.00219014
   1.75152  0.0037589
   1.77865 0.00337866
   1.80281 0.00171627
   1.82434 0.000743424
   1.84353 0.00129803
   1.86062 0.00282798
   1.87584 0.00438665
   1.88941 0.00546876
    1.9015 0.00598194
   1.91226 0.00598619
   1.92186 0.00562034
    1.9304 0.00505362
   1.93802 0.00442539
    1.9448 0.00382547
   1.95084 0.00330482
   1.95623 0.00288868
   1.96103 0.00258186
    1.9653 0.00237305
   1.96911 0.00224093
    1.9725 0.00216161
   1.97552 0.00211455
   1.97822 0.00208532
   1.98061 0.00206526
   1.98275 0.00204987
   1.98466 0.00203714
   1.98635 0.00202636
   1.98786 0.00201727
   1.98921 0.00200978
   1.99041 0.00200376
   1.99148 0.00199902
   1.99243 0.00199537
   1.99333 0.00199246
   1.99421 0.00199009
    1.9951 0.00198824
     1.996 0.00198688
   1.99689 0.00198595
   1.99777 0.00198537
   1.99867 0.00198506
   1.99956 0.00198494
         2 0.00198491
