         0  -0.108486
  0.000445  -0.108482
  0.001335  -0.108466
  0.002225  -0.108433
  0.003115  -0.108381
  0.004005  -0.108309
  0.004895  -0.108215
  0.005785  -0.108098
  0.006675  -0.107954
0.00756867  -0.107781
0.00852095  -0.107561
0.00958982  -0.107267
 0.0107896  -0.106872
 0.0121362  -0.106344
 0.0136477  -0.105636
 0.0153442  -0.104693
 0.0172484  -0.103447
 0.0193858  -0.101825
 0.0217849 -0.0997586
 0.0244777 -0.0972061
 0.0275001 -0.0941794
 0.0308926 -0.0907623
 0.0347005 -0.0871059
 0.0389746  -0.083385
 0.0437719 -0.0796912
 0.0491566 -0.0758966
 0.0552005 -0.0716066
 0.0619844 -0.0662785
 0.0695988 -0.0595058
 0.0781455 -0.0515864
 0.0877386 -0.0439558
 0.0985062 -0.0382642
  0.110592 -0.0343952
  0.124158 -0.0289888
  0.139384 -0.0165733
  0.156474 0.00499876
  0.175657  0.0268185
  0.197189  0.0358962
  0.221357  0.0313948
  0.248483  0.0288461
  0.278931  0.0386092
  0.314615  0.0492901
   0.35378  0.0532935
  0.392945  0.0565913
   0.43211  0.0566761
  0.471275  0.0462566
   0.51044  0.0180266
  0.549604 -0.0193896
  0.588769 -0.0434978
  0.627934 -0.0417504
  0.667099 -0.0154681
  0.706264  0.0115275
  0.745429  0.0237241
  0.784593  0.0282881
  0.823758  0.0246108
  0.862923  0.0104569
  0.902088 -0.00523964
  0.941253 -0.0167544
  0.980418 -0.0203021
   1.01958 -0.0130252
   1.05875 -0.00218346
   1.09791 0.00418028
   1.13708 0.00498678
   1.17624 6.29061e-05
   1.21541 -0.0109969
   1.25457 -0.0265587
   1.29374 -0.0400302
    1.3329  -0.041084
   1.37207 -0.0286912
   1.41123 -0.0173477
    1.4504 -0.0191612
   1.48956  -0.029728
   1.52873  -0.035845
   1.56789 -0.0311276
   1.60706  -0.023184
   1.64622 -0.0250007
   1.68539   -0.03006
   1.72107 -0.0147791
   1.75152  0.0199982
   1.77865  0.0612289
   1.80281   0.098575
   1.82434   0.120178
   1.84353   0.126352
   1.86062   0.117494
   1.87584  0.0916451
   1.88941  0.0553309
    1.9015  0.0182108
   1.91226 -0.0134156
   1.92186 -0.0360424
    1.9304 -0.0483721
   1.93802 -0.0514689
    1.9448  -0.048027
   1.95084 -0.0410867
   1.95623 -0.0330978
   1.96103 -0.0256625
    1.9653 -0.0196244
   1.96911 -0.0152264
    1.9725 -0.0123248
   1.97552 -0.0106003
   1.97822 -0.00970646
   1.98061 -0.00934792
   1.98275 -0.00930294
   1.98466 -0.00942046
   1.98635 -0.00960572
   1.98786 -0.0098045
   1.98921 -0.00998904
   1.99041 -0.0101475
   1.99148 -0.0102772
   1.99243 -0.0103798
   1.99333 -0.0104629
   1.99421 -0.0105323
    1.9951  -0.010588
     1.996 -0.0106308
   1.99689 -0.0106614
   1.99777 -0.0106815
   1.99867  -0.010693
   1.99956 -0.0106979
         2  -0.010699
