         0 5.18587e-20
  0.000445 2.1684e-19
  0.001335 6.44484e-19
  0.002225 -1.04534e-18
  0.003115 -1.91836e-18
  0.004005 -1.60077e-18
  0.004895 3.07455e-18
  0.005785 1.52066e-18
  0.006675 7.32622e-18
0.00756867 5.24539e-18
0.00852095 7.74311e-18
0.00958982 8.2756e-18
 0.0107896 8.72497e-19
 0.0121362 6.59528e-18
 0.0136477 -4.18249e-18
 0.0153442 3.12153e-18
 0.0172484 5.85185e-18
 0.0193858 1.36738e-18
 0.0217849 -2.00118e-18
 0.0244777 1.70111e-17
 0.0275001 2.91128e-17
 0.0308926 1.87544e-17
 0.0347005 1.38528e-18
 0.0389746 2.06257e-17
 0.0437719 5.26437e-17
 0.0491566 2.09893e-17
 0.0552005 5.25624e-17
 0.0619844 2.07484e-17
 0.0695988 1.87328e-17
 0.0781455 1.42791e-17
 0.0877386 1.00933e-16
 0.0985062 4.82375e-17
  0.110592 4.65877e-18
  0.124158 7.01109e-17
  0.139384 6.90781e-18
  0.156474 7.83248e-17
  0.175657 -2.79388e-18
  0.197189 -1.95347e-17
  0.221357 1.07131e-16
  0.248483 -1.17739e-18
  0.278931 -2.50618e-17
  0.314615 1.23128e-17
   0.35378 -3.51059e-17
  0.392945 1.83215e-17
   0.43211 -2.81027e-17
  0.471275 3.66989e-17
   0.51044 3.24268e-17
  0.549604 -2.6928e-17
  0.588769 -3.43194e-17
  0.627934 6.51167e-18
  0.667099 4.09745e-17
  0.706264 8.5093e-18
  0.745429 1.49505e-17
  0.784593 -4.9711e-17
  0.823758 -5.17426e-18
  0.862923 -7.27855e-18
  0.902088 2.08306e-18
  0.941253 -4.07611e-18
  0.980418 -2.14615e-17
   1.01958 -3.85458e-17
   1.05875 1.97897e-17
   1.09791 -1.81923e-17
   1.13708 2.57094e-17
   1.17624 -8.50795e-18
   1.21541 8.9144e-19
   1.25457 1.92864e-17
   1.29374 -1.46293e-17
    1.3329 -2.96801e-18
   1.37207 -2.98416e-17
   1.41123 -4.31547e-19
    1.4504 -2.92158e-17
   1.48956 5.11632e-18
   1.52873 -2.43138e-17
   1.56789 -3.6182e-17
   1.60706 6.20144e-17
   1.64622 -4.51407e-17
   1.68539 6.47964e-18
   1.72107 -1.18194e-17
   1.75152 -3.1716e-17
   1.77865 -2.90663e-18
   1.80281 -1.3539e-17
   1.82434 -6.458e-17
   1.84353 3.01056e-17
   1.86062 9.56367e-18
   1.87584 -2.11019e-17
   1.88941 -2.92021e-17
    1.9015 2.66338e-17
   1.91226 -2.75276e-17
   1.92186 -1.70724e-17
    1.9304 1.36025e-17
   1.93802 4.68602e-17
    1.9448 -1.14153e-17
   1.95084 -3.91496e-17
   1.95623 6.51347e-17
   1.96103 -6.62685e-18
    1.9653 1.84268e-17
   1.96911 -3.95425e-17
    1.9725 2.62345e-17
   1.97552 2.77457e-17
   1.97822 -1.38648e-17
   1.98061 4.42223e-17
   1.98275 -5.20712e-17
   1.98466 -5.6044e-17
   1.98635 2.37303e-17
   1.98786 -2.71104e-17
   1.98921 3.29033e-17
   1.99041 -3.2054e-17
   1.99148 1.58271e-17
   1.99243 -1.08157e-17
   1.99333 5.89028e-18
   1.99421 -1.97795e-18
    1.9951 -1.46485e-17
     1.996 -4.44005e-17
   1.99689 -9.88955e-18
   1.99777 2.14496e-17
   1.99867 1.09265e-18
   1.99956 -2.51582e-18
         2 -1.98052e-18
