         0 3.77632e-06
  0.000445 4.20874e-06
  0.001335 1.53449e-05
  0.002225 3.09238e-05
  0.003115 5.19206e-05
  0.004005 7.92819e-05
  0.004895 0.000113915
  0.005785 0.000156672
  0.006675 0.000208333
0.00756867 0.000269885
0.00852095 0.00034707
0.00958982 0.000448455
 0.0107896 0.000581686
 0.0121362 0.000756533
 0.0136477 0.00098537
 0.0153442 0.00128366
 0.0172484 0.00167059
 0.0193858  0.0021699
 0.0217849 0.00281102
 0.0244777 0.00363056
 0.0275001 0.00467331
 0.0308926 0.00598948
 0.0347005 0.00762413
 0.0389746 0.00959659
 0.0437719  0.0118692
 0.0491566  0.0143125
 0.0552005  0.0166846
 0.0619844  0.0186469
 0.0695988  0.0198188
 0.0781455  0.0198753
 0.0877386  0.0186772
 0.0985062  0.0163067
  0.110592  0.0128644
  0.124158 0.00832231
  0.139384 0.00306539
  0.156474 -0.00193631
  0.175657 -0.00606212
  0.197189 -0.00931399
  0.221357 -0.0113754
  0.248483 -0.0112339
  0.278931 -0.00874232
  0.314615 -0.00569772
   0.35378 -0.00369377
  0.392945 -0.00213103
   0.43211 -0.000762003
  0.471275 0.000390933
   0.51044  0.0012468
  0.549604 0.00139281
  0.588769 0.000832657
  0.627934 -7.63116e-05
  0.667099 -0.000967053
  0.706264  -0.001442
  0.745429 -0.0015927
  0.784593 -0.00155286
  0.823758 -0.00138282
  0.862923 -0.00121505
  0.902088 -0.00116343
  0.941253 -0.00118177
  0.980418 -0.00126607
   1.01958 -0.00141282
   1.05875 -0.00156823
   1.09791 -0.00170135
   1.13708 -0.0017377
   1.17624 -0.00171784
   1.21541 -0.00180586
   1.25457 -0.00209151
   1.29374 -0.0024089
    1.3329 -0.00248744
   1.37207 -0.00211888
   1.41123 -0.00143117
    1.4504 -0.000734263
   1.48956 -0.000302534
   1.52873 0.000419688
   1.56789 0.00173085
   1.60706  0.0031154
   1.64622  0.0038876
   1.68539 0.00481442
   1.72107 0.00659176
   1.75152 0.00827159
   1.77865 0.00822871
   1.80281 0.00669206
   1.82434 0.00484606
   1.84353 0.00316316
   1.86062 0.00138192
   1.87584 -0.000535093
   1.88941 -0.00225561
    1.9015 -0.00360608
   1.91226 -0.00471295
   1.92186 -0.00574847
    1.9304 -0.00675846
   1.93802 -0.00765673
    1.9448 -0.00830541
   1.95084 -0.00859132
   1.95623 -0.00846403
   1.96103 -0.00795109
    1.9653 -0.00714786
   1.96911 -0.0061834
    1.9725 -0.00518097
   1.97552 -0.00423182
   1.97822 -0.00338908
   1.98061 -0.00267397
   1.98275 -0.00208608
   1.98466 -0.00161316
   1.98635 -0.00123824
   1.98786 -0.000943971
   1.98921 -0.000714654
   1.99041 -0.000537019
   1.99148 -0.000400151
   1.99243 -0.000295292
   1.99333 -0.000211815
   1.99421 -0.000142554
    1.9951 -8.69151e-05
     1.996 -4.4613e-05
   1.99689 -1.51746e-05
   1.99777 2.11456e-06
   1.99867 8.2941e-06
   1.99956 4.79844e-06
         2 5.78056e-06
