         0 0.000454958
  0.000445 0.000454958
  0.001335 0.00409545
  0.002225  0.0113802
  0.003115  0.0223147
  0.004005  0.0369039
  0.004895  0.0551502
  0.005785  0.0770515
  0.006675   0.102599
0.00756867   0.131904
0.00852095   0.167131
0.00958982   0.211528
 0.0107896   0.267371
 0.0121362   0.337423
 0.0136477   0.424966
 0.0153442   0.533803
 0.0172484   0.668161
 0.0193858   0.832465
 0.0217849     1.0309
 0.0244777    1.26676
 0.0275001    1.54144
 0.0308926    1.85341
 0.0347005    2.19698
 0.0389746    2.56157
 0.0437719    2.93152
 0.0491566    3.28703
 0.0552005    3.60612
 0.0619844     3.8675
 0.0695988    4.05349
 0.0781455    4.15237
 0.0877386     4.1595
 0.0985062    4.07712
  0.110592    3.91345
  0.124158    3.68116
  0.139384    3.39577
  0.156474    3.07402
  0.175657    2.73322
  0.197189    2.39047
  0.221357    2.05986
  0.248483    1.75221
  0.278931     1.4719
  0.314615    1.21959
   0.35378    1.00994
  0.392945   0.855679
   0.43211   0.735909
  0.471275   0.639943
   0.51044   0.560742
  0.549604   0.493942
  0.588769   0.436587
  0.627934   0.387011
  0.667099   0.344121
  0.706264   0.306999
  0.745429   0.275062
  0.784593   0.248018
  0.823758   0.225601
  0.862923   0.207601
  0.902088   0.194063
  0.941253   0.184977
  0.980418   0.180284
   1.01958   0.180135
   1.05875   0.184501
   1.09791   0.193287
   1.13708   0.206494
   1.17624   0.224157
   1.21541   0.246308
   1.25457   0.273106
   1.29374   0.304781
    1.3329   0.341448
   1.37207   0.383434
   1.41123   0.431925
    1.4504   0.488342
   1.48956   0.554721
   1.52873   0.634051
   1.56789   0.730492
   1.60706    0.85108
   1.64622    1.00636
   1.68539    1.21655
   1.72107    1.46929
   1.75152    1.74925
   1.77865    2.05842
   1.80281    2.39136
   1.82434    2.73635
   1.84353    3.07916
   1.86062     3.4017
   1.87584    3.68582
   1.88941    3.91522
    1.9015    4.07517
   1.91226    4.15367
   1.92186    4.14311
    1.9304    4.04166
   1.93802     3.8543
    1.9448    3.59288
   1.95084    3.27494
   1.95623    2.92146
   1.96103    2.55395
    1.9653    2.19179
   1.96911    1.85031
    1.9725    1.53995
   1.97552    1.26637
   1.97822    1.03119
   1.98061   0.833095
   1.98275   0.668925
   1.98466   0.534572
   1.98635   0.425674
   1.98786   0.338042
   1.98921   0.267895
   1.99041    0.21196
   1.99148   0.167483
   1.99243   0.132189
   1.99333   0.102824
   1.99421  0.0772222
    1.9951  0.0552734
     1.996  0.0369867
   1.99689  0.0223649
   1.99777  0.0114058
   1.99867 0.00410468
   1.99956 0.000455983
         2 0.000455983
