         0    15.3443
  0.000445    15.3197
  0.001335    15.2795
  0.002225    15.2493
  0.003115    15.2258
  0.004005    15.2064
  0.004895    15.1885
  0.005785    15.1697
  0.006675    15.1479
0.00756867    15.1208
0.00852095    15.0835
0.00958982    15.0292
 0.0107896    14.9499
 0.0121362    14.8343
 0.0136477     14.668
 0.0153442    14.4335
 0.0172484    14.1115
 0.0193858    13.6833
 0.0217849    13.1359
 0.0244777    12.4679
 0.0275001    11.6954
 0.0308926    10.8556
 0.0347005     10.005
 0.0389746    9.20822
 0.0437719    8.52133
 0.0491566    7.97378
 0.0552005    7.55764
 0.0619844    7.23089
 0.0695988    6.93384
 0.0781455    6.61081
 0.0877386    6.22672
 0.0985062    5.77171
  0.110592    5.25413
  0.124158    4.69074
  0.139384    4.10469
  0.156474    3.52368
  0.175657     2.9732
  0.197189    2.47429
  0.221357    2.03956
  0.248483    1.67231
  0.278931    1.34878
  0.314615    1.06187
   0.35378   0.874434
  0.392945   0.745354
   0.43211   0.645678
  0.471275   0.565533
   0.51044   0.500065
  0.549604   0.445472
  0.588769   0.399237
  0.627934   0.361531
  0.667099   0.330296
  0.706264   0.304074
  0.745429   0.280781
  0.784593   0.261353
  0.823758   0.247392
  0.862923   0.237617
  0.902088   0.231124
  0.941253   0.227385
  0.980418   0.225629
   1.01958   0.225641
   1.05875   0.227982
   1.09791     0.2329
   1.13708   0.240096
   1.17624   0.249445
   1.21541   0.262058
   1.25457   0.278891
   1.29374   0.300287
    1.3329   0.326298
   1.37207   0.357732
   1.41123   0.394952
    1.4504   0.438867
   1.48956    0.49322
   1.52873   0.561422
   1.56789   0.644648
   1.60706   0.746649
   1.64622   0.874587
   1.68539    1.05737
   1.72107    1.33916
   1.75152    1.66252
   1.77865     2.0319
   1.80281    2.46997
   1.82434    2.97493
   1.84353    3.53161
   1.86062    4.11645
   1.87584    4.70829
   1.88941    5.28129
    1.9015    5.80835
   1.91226     6.2706
   1.92186    6.66201
    1.9304    6.99537
   1.93802    7.30552
    1.9448    7.64472
   1.95084    8.06862
   1.95623    8.61687
   1.96103    9.29791
    1.9653    10.0854
   1.96911    10.9272
    1.9725    11.7616
   1.97552    12.5336
   1.97822    13.2052
   1.98061    13.7586
   1.98275    14.1939
   1.98466    14.5227
   1.98635     14.763
   1.98786    14.9339
   1.98921     15.053
   1.99041    15.1348
   1.99148    15.1907
   1.99243    15.2292
   1.99333    15.2569
   1.99421    15.2791
    1.9951    15.2981
     1.996    15.3159
   1.99689     15.335
   1.99777    15.3581
   1.99867    15.3878
   1.99956    15.4274
         2    15.4516
