         0   -11.0298
  0.000445   -11.0248
  0.001335   -11.0148
  0.002225   -11.0045
  0.003115   -10.9936
  0.004005    -10.982
  0.004895   -10.9696
  0.005785   -10.9561
  0.006675   -10.9415
0.00756867   -10.9255
0.00852095   -10.9067
0.00958982   -10.8833
 0.0107896   -10.8538
 0.0121362   -10.8164
 0.0136477   -10.7684
 0.0153442   -10.7065
 0.0172484   -10.6261
 0.0193858   -10.5218
 0.0217849   -10.3866
 0.0244777    -10.212
 0.0275001   -9.98868
 0.0308926   -9.70602
 0.0347005   -9.35375
 0.0389746   -8.92322
 0.0437719   -8.40958
 0.0491566   -7.81428
 0.0552005   -7.14695
 0.0619844   -6.42565
 0.0695988   -5.67465
 0.0781455   -4.92019
 0.0877386   -4.18611
 0.0985062   -3.49252
  0.110592   -2.85774
  0.124158   -2.29845
  0.139384   -1.82595
  0.156474   -1.44621
  0.175657   -1.15284
  0.197189  -0.923986
  0.221357  -0.745714
  0.248483    -0.6161
  0.278931  -0.512516
  0.314615  -0.424635
   0.35378  -0.370058
  0.392945  -0.338597
   0.43211   -0.32721
  0.471275   -0.33729
   0.51044  -0.334031
  0.549604  -0.297258
  0.588769  -0.253974
  0.627934  -0.231392
  0.667099  -0.224293
  0.706264  -0.218343
  0.745429  -0.207776
  0.784593  -0.184812
  0.823758  -0.145673
  0.862923  -0.106604
  0.902088 -0.0737033
  0.941253 -0.0407729
  0.980418 -0.0100851
   1.01958  0.0146172
   1.05875  0.0323345
   1.09791  0.0492134
   1.13708  0.0739969
   1.17624   0.102822
   1.21541   0.126868
   1.25457   0.146619
   1.29374   0.171185
    1.3329   0.206954
   1.37207   0.247619
   1.41123   0.284036
    1.4504   0.316558
   1.48956   0.343859
   1.52873   0.363103
   1.56789   0.380233
   1.60706   0.407579
   1.64622   0.464494
   1.68539   0.541785
   1.72107   0.620952
   1.75152   0.720547
   1.77865   0.849382
   1.80281    1.01768
   1.82434    1.25576
   1.84353    1.56524
   1.86062    1.93296
   1.87584    2.35687
   1.88941    2.83819
    1.9015    3.38083
   1.91226     3.9866
   1.92186    4.64915
    1.9304    5.35359
   1.93802    6.07794
    1.9448    6.79537
   1.95084    7.47816
   1.95623    8.10242
   1.96103    8.65183
    1.9653     9.1188
   1.96911    9.50366
    1.9725     9.8126
   1.97552    10.0553
   1.97822    10.2428
   1.98061     10.386
   1.98275    10.4945
   1.98466    10.5765
   1.98635    10.6387
   1.98786    10.6859
   1.98921    10.7222
   1.99041    10.7504
   1.99148    10.7726
   1.99243    10.7902
   1.99333    10.8052
   1.99421    10.8188
    1.9951    10.8313
     1.996    10.8429
   1.99689    10.8537
   1.99777    10.8641
   1.99867    10.8741
   1.99956    10.8838
         2    10.8887
