         0 -0.0129458
  0.000445 -0.0127763
  0.001335 -0.0125008
  0.002225 -0.0122976
  0.003115 -0.0121536
  0.004005 -0.0120584
  0.004895 -0.0120027
  0.005785 -0.0119786
  0.006675 -0.0119795
0.00756867 -0.0119999
0.00852095 -0.0120377
0.00958982 -0.0120943
 0.0107896 -0.0121678
 0.0121362 -0.0122539
 0.0136477 -0.0123439
 0.0153442 -0.0124229
 0.0172484 -0.0124668
 0.0193858 -0.0124376
 0.0217849 -0.0122787
 0.0244777 -0.0119093
 0.0275001 -0.0112199
 0.0308926 -0.0100781
 0.0347005 -0.00835047
 0.0389746 -0.0059398
 0.0437719 -0.00283265
 0.0491566 0.000826807
 0.0552005 0.00463073
 0.0619844 0.00786663
 0.0695988 0.00969522
 0.0781455 0.00964415
 0.0877386 0.00787153
 0.0985062 0.00468506
  0.110592 0.00030037
  0.124158 -0.00433169
  0.139384 -0.00751336
  0.156474 -0.00943805
  0.175657 -0.0116818
  0.197189  -0.013152
  0.221357 -0.0116514
  0.248483 -0.00741626
  0.278931 -0.00302719
  0.314615 -0.00179204
   0.35378 -0.00145402
  0.392945 -0.000485182
   0.43211 0.000118236
  0.471275 -0.000298376
   0.51044 -0.00136896
  0.549604 -0.00194375
  0.588769 -0.00184304
  0.627934 -0.00160874
  0.667099 -0.00227869
  0.706264 -0.00290174
  0.745429 -0.00299302
  0.784593 -0.00265335
  0.823758 -0.00188503
  0.862923 -0.000897665
  0.902088 -0.000279445
  0.941253 -0.000181378
  0.980418 -0.000126701
   1.01958 0.000102335
   1.05875 0.000272853
   1.09791 0.000654267
   1.13708 0.00124974
   1.17624 0.00151086
   1.21541 0.00131068
   1.25457 0.00125026
   1.29374  0.0011413
    1.3329 0.00107403
   1.37207 0.00129454
   1.41123 0.00197513
    1.4504 0.00200894
   1.48956 0.00158929
   1.52873 0.00152389
   1.56789 0.00104119
   1.60706 -0.000103645
   1.64622 -0.00179834
   1.68539 -0.00209246
   1.72107 -0.00166914
   1.75152 0.00133842
   1.77865 0.00292132
   1.80281 0.00534783
   1.82434  0.0113998
   1.84353  0.0167399
   1.86062  0.0184584
   1.87584  0.0179129
   1.88941  0.0177468
    1.9015  0.0174967
   1.91226  0.0158138
   1.92186  0.0138028
    1.9304  0.0133558
   1.93802  0.0150728
    1.9448   0.018194
   1.95084   0.021363
   1.95623   0.023391
   1.96103  0.0237989
    1.9653  0.0228888
   1.96911  0.0213987
    1.9725  0.0200567
   1.97552  0.0193131
   1.97822  0.0193045
   1.98061  0.0199523
   1.98275  0.0210791
   1.98466  0.0224919
   1.98635  0.0240256
   1.98786  0.0255578
   1.98921  0.0270082
   1.99041  0.0283316
   1.99148  0.0295081
   1.99243   0.030535
   1.99333  0.0314647
   1.99421  0.0323471
    1.9951  0.0331759
     1.996  0.0339426
   1.99689  0.0346405
   1.99777  0.0352659
   1.99867   0.035818
   1.99956  0.0363003
         2  0.0365161
