         0  -0.011845
  0.000445 -0.0119019
  0.001335 -0.0360072
  0.002225  -0.060254
  0.003115 -0.0843365
  0.004005   -0.10796
  0.004895  -0.130845
  0.005785  -0.152728
  0.006675  -0.173365
0.00756867  -0.192606
0.00852095  -0.211221
0.00958982  -0.229582
 0.0107896  -0.246706
 0.0121362  -0.261212
 0.0136477  -0.271242
 0.0153442  -0.274405
 0.0172484   -0.26777
 0.0193858  -0.247949
 0.0217849  -0.211316
 0.0244777  -0.154396
 0.0275001 -0.0744492
 0.0308926   0.029818
 0.0347005   0.157504
 0.0389746   0.304949
 0.0437719   0.465575
 0.0491566   0.630343
 0.0552005   0.788868
 0.0619844   0.930988
 0.0695988    1.04838
 0.0781455     1.1357
 0.0877386      1.191
 0.0985062    1.21521
  0.110592    1.21118
  0.124158    1.18262
  0.139384    1.13343
  0.156474    1.06729
  0.175657   0.987762
  0.197189    0.89882
  0.221357   0.804205
  0.248483   0.707417
  0.278931   0.612344
  0.314615     0.5186
   0.35378   0.438607
  0.392945   0.374609
   0.43211   0.322791
  0.471275   0.280479
   0.51044   0.245175
  0.549604   0.214733
  0.588769   0.187801
  0.627934   0.163494
  0.667099   0.141259
  0.706264   0.120728
  0.745429   0.101847
  0.784593  0.0843249
  0.823758  0.0678032
  0.862923  0.0520595
  0.902088   0.036926
  0.941253  0.0222879
  0.980418  0.0079931
   1.01958 -0.00625148
   1.05875 -0.0206544
   1.09791 -0.0351797
   1.13708 -0.0500122
   1.17624 -0.0654566
   1.21541 -0.0816967
   1.25457 -0.0990371
   1.29374  -0.117605
    1.3329  -0.137541
   1.37207  -0.159359
   1.41123  -0.183527
    1.4504  -0.210454
   1.48956  -0.240893
   1.52873  -0.275987
   1.56789  -0.317495
   1.60706  -0.367704
   1.64622  -0.430115
   1.68539  -0.509349
   1.72107    -0.6029
   1.75152  -0.697573
   1.77865  -0.793505
   1.80281  -0.886728
   1.82434  -0.974025
   1.84353   -1.05221
   1.86062   -1.11801
   1.87584   -1.16788
   1.88941   -1.19778
    1.9015   -1.20353
   1.91226   -1.18121
   1.92186   -1.12793
    1.9304   -1.04278
   1.93802  -0.927689
    1.9448  -0.787847
   1.95084  -0.631413
   1.95623  -0.468382
   1.96103  -0.309019
    1.9653  -0.162311
   1.96911 -0.0348655
    1.9725  0.0695588
   1.97552   0.149931
   1.97822   0.207416
   1.98061   0.244654
   1.98275    0.26505
   1.98466   0.272193
   1.98635   0.269458
   1.98786   0.259777
   1.98921   0.245549
   1.99041   0.228644
   1.99148   0.210453
   1.99243   0.191972
   1.99333   0.172839
   1.99421   0.152297
    1.9951   0.130496
     1.996   0.107684
   1.99689  0.0841255
   1.99777  0.0601033
   1.99867  0.0359152
   1.99956  0.0118701
         2  0.0118126
